 TITLE = "STAGGERED GRID ARRANGEMENT"
 VARIABLES = "X", "Y"
 ZONE T = "MESH", I =  23, J =  23, F = POINT
-0.314159274     -0.314159274
 0.000000000     -0.314159274
 0.314159274     -0.314159274
 0.628318548     -0.314159274
 0.942477822     -0.314159274
 1.256637096     -0.314159274
 1.570796371     -0.314159274
 1.884955645     -0.314159274
 2.199114919     -0.314159274
 2.513274193     -0.314159274
 2.827433467     -0.314159274
 3.141592741     -0.314159274
 3.455752015     -0.314159274
 3.769911289     -0.314159274
 4.084070563     -0.314159274
 4.398229837     -0.314159274
 4.712389112     -0.314159274
 5.026548386     -0.314159274
 5.340707660     -0.314159274
 5.654866934     -0.314159274
 5.969026208     -0.314159274
 6.283185482     -0.314159274
 6.597344756     -0.314159274
-0.314159274      0.000000000
 0.000000000      0.000000000
 0.314159274      0.000000000
 0.628318548      0.000000000
 0.942477822      0.000000000
 1.256637096      0.000000000
 1.570796371      0.000000000
 1.884955645      0.000000000
 2.199114919      0.000000000
 2.513274193      0.000000000
 2.827433467      0.000000000
 3.141592741      0.000000000
 3.455752015      0.000000000
 3.769911289      0.000000000
 4.084070563      0.000000000
 4.398229837      0.000000000
 4.712389112      0.000000000
 5.026548386      0.000000000
 5.340707660      0.000000000
 5.654866934      0.000000000
 5.969026208      0.000000000
 6.283185482      0.000000000
 6.597344756      0.000000000
-0.314159274      0.314159274
 0.000000000      0.314159274
 0.314159274      0.314159274
 0.628318548      0.314159274
 0.942477822      0.314159274
 1.256637096      0.314159274
 1.570796371      0.314159274
 1.884955645      0.314159274
 2.199114919      0.314159274
 2.513274193      0.314159274
 2.827433467      0.314159274
 3.141592741      0.314159274
 3.455752015      0.314159274
 3.769911289      0.314159274
 4.084070563      0.314159274
 4.398229837      0.314159274
 4.712389112      0.314159274
 5.026548386      0.314159274
 5.340707660      0.314159274
 5.654866934      0.314159274
 5.969026208      0.314159274
 6.283185482      0.314159274
 6.597344756      0.314159274
-0.314159274      0.628318548
 0.000000000      0.628318548
 0.314159274      0.628318548
 0.628318548      0.628318548
 0.942477822      0.628318548
 1.256637096      0.628318548
 1.570796371      0.628318548
 1.884955645      0.628318548
 2.199114919      0.628318548
 2.513274193      0.628318548
 2.827433467      0.628318548
 3.141592741      0.628318548
 3.455752015      0.628318548
 3.769911289      0.628318548
 4.084070563      0.628318548
 4.398229837      0.628318548
 4.712389112      0.628318548
 5.026548386      0.628318548
 5.340707660      0.628318548
 5.654866934      0.628318548
 5.969026208      0.628318548
 6.283185482      0.628318548
 6.597344756      0.628318548
-0.314159274      0.942477822
 0.000000000      0.942477822
 0.314159274      0.942477822
 0.628318548      0.942477822
 0.942477822      0.942477822
 1.256637096      0.942477822
 1.570796371      0.942477822
 1.884955645      0.942477822
 2.199114919      0.942477822
 2.513274193      0.942477822
 2.827433467      0.942477822
 3.141592741      0.942477822
 3.455752015      0.942477822
 3.769911289      0.942477822
 4.084070563      0.942477822
 4.398229837      0.942477822
 4.712389112      0.942477822
 5.026548386      0.942477822
 5.340707660      0.942477822
 5.654866934      0.942477822
 5.969026208      0.942477822
 6.283185482      0.942477822
 6.597344756      0.942477822
-0.314159274      1.256637096
 0.000000000      1.256637096
 0.314159274      1.256637096
 0.628318548      1.256637096
 0.942477822      1.256637096
 1.256637096      1.256637096
 1.570796371      1.256637096
 1.884955645      1.256637096
 2.199114919      1.256637096
 2.513274193      1.256637096
 2.827433467      1.256637096
 3.141592741      1.256637096
 3.455752015      1.256637096
 3.769911289      1.256637096
 4.084070563      1.256637096
 4.398229837      1.256637096
 4.712389112      1.256637096
 5.026548386      1.256637096
 5.340707660      1.256637096
 5.654866934      1.256637096
 5.969026208      1.256637096
 6.283185482      1.256637096
 6.597344756      1.256637096
-0.314159274      1.570796371
 0.000000000      1.570796371
 0.314159274      1.570796371
 0.628318548      1.570796371
 0.942477822      1.570796371
 1.256637096      1.570796371
 1.570796371      1.570796371
 1.884955645      1.570796371
 2.199114919      1.570796371
 2.513274193      1.570796371
 2.827433467      1.570796371
 3.141592741      1.570796371
 3.455752015      1.570796371
 3.769911289      1.570796371
 4.084070563      1.570796371
 4.398229837      1.570796371
 4.712389112      1.570796371
 5.026548386      1.570796371
 5.340707660      1.570796371
 5.654866934      1.570796371
 5.969026208      1.570796371
 6.283185482      1.570796371
 6.597344756      1.570796371
-0.314159274      1.884955645
 0.000000000      1.884955645
 0.314159274      1.884955645
 0.628318548      1.884955645
 0.942477822      1.884955645
 1.256637096      1.884955645
 1.570796371      1.884955645
 1.884955645      1.884955645
 2.199114919      1.884955645
 2.513274193      1.884955645
 2.827433467      1.884955645
 3.141592741      1.884955645
 3.455752015      1.884955645
 3.769911289      1.884955645
 4.084070563      1.884955645
 4.398229837      1.884955645
 4.712389112      1.884955645
 5.026548386      1.884955645
 5.340707660      1.884955645
 5.654866934      1.884955645
 5.969026208      1.884955645
 6.283185482      1.884955645
 6.597344756      1.884955645
-0.314159274      2.199114919
 0.000000000      2.199114919
 0.314159274      2.199114919
 0.628318548      2.199114919
 0.942477822      2.199114919
 1.256637096      2.199114919
 1.570796371      2.199114919
 1.884955645      2.199114919
 2.199114919      2.199114919
 2.513274193      2.199114919
 2.827433467      2.199114919
 3.141592741      2.199114919
 3.455752015      2.199114919
 3.769911289      2.199114919
 4.084070563      2.199114919
 4.398229837      2.199114919
 4.712389112      2.199114919
 5.026548386      2.199114919
 5.340707660      2.199114919
 5.654866934      2.199114919
 5.969026208      2.199114919
 6.283185482      2.199114919
 6.597344756      2.199114919
-0.314159274      2.513274193
 0.000000000      2.513274193
 0.314159274      2.513274193
 0.628318548      2.513274193
 0.942477822      2.513274193
 1.256637096      2.513274193
 1.570796371      2.513274193
 1.884955645      2.513274193
 2.199114919      2.513274193
 2.513274193      2.513274193
 2.827433467      2.513274193
 3.141592741      2.513274193
 3.455752015      2.513274193
 3.769911289      2.513274193
 4.084070563      2.513274193
 4.398229837      2.513274193
 4.712389112      2.513274193
 5.026548386      2.513274193
 5.340707660      2.513274193
 5.654866934      2.513274193
 5.969026208      2.513274193
 6.283185482      2.513274193
 6.597344756      2.513274193
-0.314159274      2.827433467
 0.000000000      2.827433467
 0.314159274      2.827433467
 0.628318548      2.827433467
 0.942477822      2.827433467
 1.256637096      2.827433467
 1.570796371      2.827433467
 1.884955645      2.827433467
 2.199114919      2.827433467
 2.513274193      2.827433467
 2.827433467      2.827433467
 3.141592741      2.827433467
 3.455752015      2.827433467
 3.769911289      2.827433467
 4.084070563      2.827433467
 4.398229837      2.827433467
 4.712389112      2.827433467
 5.026548386      2.827433467
 5.340707660      2.827433467
 5.654866934      2.827433467
 5.969026208      2.827433467
 6.283185482      2.827433467
 6.597344756      2.827433467
-0.314159274      3.141592741
 0.000000000      3.141592741
 0.314159274      3.141592741
 0.628318548      3.141592741
 0.942477822      3.141592741
 1.256637096      3.141592741
 1.570796371      3.141592741
 1.884955645      3.141592741
 2.199114919      3.141592741
 2.513274193      3.141592741
 2.827433467      3.141592741
 3.141592741      3.141592741
 3.455752015      3.141592741
 3.769911289      3.141592741
 4.084070563      3.141592741
 4.398229837      3.141592741
 4.712389112      3.141592741
 5.026548386      3.141592741
 5.340707660      3.141592741
 5.654866934      3.141592741
 5.969026208      3.141592741
 6.283185482      3.141592741
 6.597344756      3.141592741
-0.314159274      3.455752015
 0.000000000      3.455752015
 0.314159274      3.455752015
 0.628318548      3.455752015
 0.942477822      3.455752015
 1.256637096      3.455752015
 1.570796371      3.455752015
 1.884955645      3.455752015
 2.199114919      3.455752015
 2.513274193      3.455752015
 2.827433467      3.455752015
 3.141592741      3.455752015
 3.455752015      3.455752015
 3.769911289      3.455752015
 4.084070563      3.455752015
 4.398229837      3.455752015
 4.712389112      3.455752015
 5.026548386      3.455752015
 5.340707660      3.455752015
 5.654866934      3.455752015
 5.969026208      3.455752015
 6.283185482      3.455752015
 6.597344756      3.455752015
-0.314159274      3.769911289
 0.000000000      3.769911289
 0.314159274      3.769911289
 0.628318548      3.769911289
 0.942477822      3.769911289
 1.256637096      3.769911289
 1.570796371      3.769911289
 1.884955645      3.769911289
 2.199114919      3.769911289
 2.513274193      3.769911289
 2.827433467      3.769911289
 3.141592741      3.769911289
 3.455752015      3.769911289
 3.769911289      3.769911289
 4.084070563      3.769911289
 4.398229837      3.769911289
 4.712389112      3.769911289
 5.026548386      3.769911289
 5.340707660      3.769911289
 5.654866934      3.769911289
 5.969026208      3.769911289
 6.283185482      3.769911289
 6.597344756      3.769911289
-0.314159274      4.084070563
 0.000000000      4.084070563
 0.314159274      4.084070563
 0.628318548      4.084070563
 0.942477822      4.084070563
 1.256637096      4.084070563
 1.570796371      4.084070563
 1.884955645      4.084070563
 2.199114919      4.084070563
 2.513274193      4.084070563
 2.827433467      4.084070563
 3.141592741      4.084070563
 3.455752015      4.084070563
 3.769911289      4.084070563
 4.084070563      4.084070563
 4.398229837      4.084070563
 4.712389112      4.084070563
 5.026548386      4.084070563
 5.340707660      4.084070563
 5.654866934      4.084070563
 5.969026208      4.084070563
 6.283185482      4.084070563
 6.597344756      4.084070563
-0.314159274      4.398229837
 0.000000000      4.398229837
 0.314159274      4.398229837
 0.628318548      4.398229837
 0.942477822      4.398229837
 1.256637096      4.398229837
 1.570796371      4.398229837
 1.884955645      4.398229837
 2.199114919      4.398229837
 2.513274193      4.398229837
 2.827433467      4.398229837
 3.141592741      4.398229837
 3.455752015      4.398229837
 3.769911289      4.398229837
 4.084070563      4.398229837
 4.398229837      4.398229837
 4.712389112      4.398229837
 5.026548386      4.398229837
 5.340707660      4.398229837
 5.654866934      4.398229837
 5.969026208      4.398229837
 6.283185482      4.398229837
 6.597344756      4.398229837
-0.314159274      4.712389112
 0.000000000      4.712389112
 0.314159274      4.712389112
 0.628318548      4.712389112
 0.942477822      4.712389112
 1.256637096      4.712389112
 1.570796371      4.712389112
 1.884955645      4.712389112
 2.199114919      4.712389112
 2.513274193      4.712389112
 2.827433467      4.712389112
 3.141592741      4.712389112
 3.455752015      4.712389112
 3.769911289      4.712389112
 4.084070563      4.712389112
 4.398229837      4.712389112
 4.712389112      4.712389112
 5.026548386      4.712389112
 5.340707660      4.712389112
 5.654866934      4.712389112
 5.969026208      4.712389112
 6.283185482      4.712389112
 6.597344756      4.712389112
-0.314159274      5.026548386
 0.000000000      5.026548386
 0.314159274      5.026548386
 0.628318548      5.026548386
 0.942477822      5.026548386
 1.256637096      5.026548386
 1.570796371      5.026548386
 1.884955645      5.026548386
 2.199114919      5.026548386
 2.513274193      5.026548386
 2.827433467      5.026548386
 3.141592741      5.026548386
 3.455752015      5.026548386
 3.769911289      5.026548386
 4.084070563      5.026548386
 4.398229837      5.026548386
 4.712389112      5.026548386
 5.026548386      5.026548386
 5.340707660      5.026548386
 5.654866934      5.026548386
 5.969026208      5.026548386
 6.283185482      5.026548386
 6.597344756      5.026548386
-0.314159274      5.340707660
 0.000000000      5.340707660
 0.314159274      5.340707660
 0.628318548      5.340707660
 0.942477822      5.340707660
 1.256637096      5.340707660
 1.570796371      5.340707660
 1.884955645      5.340707660
 2.199114919      5.340707660
 2.513274193      5.340707660
 2.827433467      5.340707660
 3.141592741      5.340707660
 3.455752015      5.340707660
 3.769911289      5.340707660
 4.084070563      5.340707660
 4.398229837      5.340707660
 4.712389112      5.340707660
 5.026548386      5.340707660
 5.340707660      5.340707660
 5.654866934      5.340707660
 5.969026208      5.340707660
 6.283185482      5.340707660
 6.597344756      5.340707660
-0.314159274      5.654866934
 0.000000000      5.654866934
 0.314159274      5.654866934
 0.628318548      5.654866934
 0.942477822      5.654866934
 1.256637096      5.654866934
 1.570796371      5.654866934
 1.884955645      5.654866934
 2.199114919      5.654866934
 2.513274193      5.654866934
 2.827433467      5.654866934
 3.141592741      5.654866934
 3.455752015      5.654866934
 3.769911289      5.654866934
 4.084070563      5.654866934
 4.398229837      5.654866934
 4.712389112      5.654866934
 5.026548386      5.654866934
 5.340707660      5.654866934
 5.654866934      5.654866934
 5.969026208      5.654866934
 6.283185482      5.654866934
 6.597344756      5.654866934
-0.314159274      5.969026208
 0.000000000      5.969026208
 0.314159274      5.969026208
 0.628318548      5.969026208
 0.942477822      5.969026208
 1.256637096      5.969026208
 1.570796371      5.969026208
 1.884955645      5.969026208
 2.199114919      5.969026208
 2.513274193      5.969026208
 2.827433467      5.969026208
 3.141592741      5.969026208
 3.455752015      5.969026208
 3.769911289      5.969026208
 4.084070563      5.969026208
 4.398229837      5.969026208
 4.712389112      5.969026208
 5.026548386      5.969026208
 5.340707660      5.969026208
 5.654866934      5.969026208
 5.969026208      5.969026208
 6.283185482      5.969026208
 6.597344756      5.969026208
-0.314159274      6.283185482
 0.000000000      6.283185482
 0.314159274      6.283185482
 0.628318548      6.283185482
 0.942477822      6.283185482
 1.256637096      6.283185482
 1.570796371      6.283185482
 1.884955645      6.283185482
 2.199114919      6.283185482
 2.513274193      6.283185482
 2.827433467      6.283185482
 3.141592741      6.283185482
 3.455752015      6.283185482
 3.769911289      6.283185482
 4.084070563      6.283185482
 4.398229837      6.283185482
 4.712389112      6.283185482
 5.026548386      6.283185482
 5.340707660      6.283185482
 5.654866934      6.283185482
 5.969026208      6.283185482
 6.283185482      6.283185482
 6.597344756      6.283185482
-0.314159274      6.597344756
 0.000000000      6.597344756
 0.314159274      6.597344756
 0.628318548      6.597344756
 0.942477822      6.597344756
 1.256637096      6.597344756
 1.570796371      6.597344756
 1.884955645      6.597344756
 2.199114919      6.597344756
 2.513274193      6.597344756
 2.827433467      6.597344756
 3.141592741      6.597344756
 3.455752015      6.597344756
 3.769911289      6.597344756
 4.084070563      6.597344756
 4.398229837      6.597344756
 4.712389112      6.597344756
 5.026548386      6.597344756
 5.340707660      6.597344756
 5.654866934      6.597344756
 5.969026208      6.597344756
 6.283185482      6.597344756
 6.597344756      6.597344756
 ZONE T = "P-NODES", I =  22, J =  22, F = POINT
-0.157079637     -0.157079637
 0.157079637     -0.157079637
 0.471238911     -0.157079637
 0.785398185     -0.157079637
 1.099557459     -0.157079637
 1.413716733     -0.157079637
 1.727876008     -0.157079637
 2.042035282     -0.157079637
 2.356194556     -0.157079637
 2.670353830     -0.157079637
 2.984513104     -0.157079637
 3.298672378     -0.157079637
 3.612831652     -0.157079637
 3.926990926     -0.157079637
 4.241150200     -0.157079637
 4.555309474     -0.157079637
 4.869468749     -0.157079637
 5.183628023     -0.157079637
 5.497787297     -0.157079637
 5.811946571     -0.157079637
 6.126105845     -0.157079637
 6.440265119     -0.157079637
-0.157079637      0.157079637
 0.157079637      0.157079637
 0.471238911      0.157079637
 0.785398185      0.157079637
 1.099557459      0.157079637
 1.413716733      0.157079637
 1.727876008      0.157079637
 2.042035282      0.157079637
 2.356194556      0.157079637
 2.670353830      0.157079637
 2.984513104      0.157079637
 3.298672378      0.157079637
 3.612831652      0.157079637
 3.926990926      0.157079637
 4.241150200      0.157079637
 4.555309474      0.157079637
 4.869468749      0.157079637
 5.183628023      0.157079637
 5.497787297      0.157079637
 5.811946571      0.157079637
 6.126105845      0.157079637
 6.440265119      0.157079637
-0.157079637      0.471238911
 0.157079637      0.471238911
 0.471238911      0.471238911
 0.785398185      0.471238911
 1.099557459      0.471238911
 1.413716733      0.471238911
 1.727876008      0.471238911
 2.042035282      0.471238911
 2.356194556      0.471238911
 2.670353830      0.471238911
 2.984513104      0.471238911
 3.298672378      0.471238911
 3.612831652      0.471238911
 3.926990926      0.471238911
 4.241150200      0.471238911
 4.555309474      0.471238911
 4.869468749      0.471238911
 5.183628023      0.471238911
 5.497787297      0.471238911
 5.811946571      0.471238911
 6.126105845      0.471238911
 6.440265119      0.471238911
-0.157079637      0.785398185
 0.157079637      0.785398185
 0.471238911      0.785398185
 0.785398185      0.785398185
 1.099557459      0.785398185
 1.413716733      0.785398185
 1.727876008      0.785398185
 2.042035282      0.785398185
 2.356194556      0.785398185
 2.670353830      0.785398185
 2.984513104      0.785398185
 3.298672378      0.785398185
 3.612831652      0.785398185
 3.926990926      0.785398185
 4.241150200      0.785398185
 4.555309474      0.785398185
 4.869468749      0.785398185
 5.183628023      0.785398185
 5.497787297      0.785398185
 5.811946571      0.785398185
 6.126105845      0.785398185
 6.440265119      0.785398185
-0.157079637      1.099557459
 0.157079637      1.099557459
 0.471238911      1.099557459
 0.785398185      1.099557459
 1.099557459      1.099557459
 1.413716733      1.099557459
 1.727876008      1.099557459
 2.042035282      1.099557459
 2.356194556      1.099557459
 2.670353830      1.099557459
 2.984513104      1.099557459
 3.298672378      1.099557459
 3.612831652      1.099557459
 3.926990926      1.099557459
 4.241150200      1.099557459
 4.555309474      1.099557459
 4.869468749      1.099557459
 5.183628023      1.099557459
 5.497787297      1.099557459
 5.811946571      1.099557459
 6.126105845      1.099557459
 6.440265119      1.099557459
-0.157079637      1.413716733
 0.157079637      1.413716733
 0.471238911      1.413716733
 0.785398185      1.413716733
 1.099557459      1.413716733
 1.413716733      1.413716733
 1.727876008      1.413716733
 2.042035282      1.413716733
 2.356194556      1.413716733
 2.670353830      1.413716733
 2.984513104      1.413716733
 3.298672378      1.413716733
 3.612831652      1.413716733
 3.926990926      1.413716733
 4.241150200      1.413716733
 4.555309474      1.413716733
 4.869468749      1.413716733
 5.183628023      1.413716733
 5.497787297      1.413716733
 5.811946571      1.413716733
 6.126105845      1.413716733
 6.440265119      1.413716733
-0.157079637      1.727876008
 0.157079637      1.727876008
 0.471238911      1.727876008
 0.785398185      1.727876008
 1.099557459      1.727876008
 1.413716733      1.727876008
 1.727876008      1.727876008
 2.042035282      1.727876008
 2.356194556      1.727876008
 2.670353830      1.727876008
 2.984513104      1.727876008
 3.298672378      1.727876008
 3.612831652      1.727876008
 3.926990926      1.727876008
 4.241150200      1.727876008
 4.555309474      1.727876008
 4.869468749      1.727876008
 5.183628023      1.727876008
 5.497787297      1.727876008
 5.811946571      1.727876008
 6.126105845      1.727876008
 6.440265119      1.727876008
-0.157079637      2.042035282
 0.157079637      2.042035282
 0.471238911      2.042035282
 0.785398185      2.042035282
 1.099557459      2.042035282
 1.413716733      2.042035282
 1.727876008      2.042035282
 2.042035282      2.042035282
 2.356194556      2.042035282
 2.670353830      2.042035282
 2.984513104      2.042035282
 3.298672378      2.042035282
 3.612831652      2.042035282
 3.926990926      2.042035282
 4.241150200      2.042035282
 4.555309474      2.042035282
 4.869468749      2.042035282
 5.183628023      2.042035282
 5.497787297      2.042035282
 5.811946571      2.042035282
 6.126105845      2.042035282
 6.440265119      2.042035282
-0.157079637      2.356194556
 0.157079637      2.356194556
 0.471238911      2.356194556
 0.785398185      2.356194556
 1.099557459      2.356194556
 1.413716733      2.356194556
 1.727876008      2.356194556
 2.042035282      2.356194556
 2.356194556      2.356194556
 2.670353830      2.356194556
 2.984513104      2.356194556
 3.298672378      2.356194556
 3.612831652      2.356194556
 3.926990926      2.356194556
 4.241150200      2.356194556
 4.555309474      2.356194556
 4.869468749      2.356194556
 5.183628023      2.356194556
 5.497787297      2.356194556
 5.811946571      2.356194556
 6.126105845      2.356194556
 6.440265119      2.356194556
-0.157079637      2.670353830
 0.157079637      2.670353830
 0.471238911      2.670353830
 0.785398185      2.670353830
 1.099557459      2.670353830
 1.413716733      2.670353830
 1.727876008      2.670353830
 2.042035282      2.670353830
 2.356194556      2.670353830
 2.670353830      2.670353830
 2.984513104      2.670353830
 3.298672378      2.670353830
 3.612831652      2.670353830
 3.926990926      2.670353830
 4.241150200      2.670353830
 4.555309474      2.670353830
 4.869468749      2.670353830
 5.183628023      2.670353830
 5.497787297      2.670353830
 5.811946571      2.670353830
 6.126105845      2.670353830
 6.440265119      2.670353830
-0.157079637      2.984513104
 0.157079637      2.984513104
 0.471238911      2.984513104
 0.785398185      2.984513104
 1.099557459      2.984513104
 1.413716733      2.984513104
 1.727876008      2.984513104
 2.042035282      2.984513104
 2.356194556      2.984513104
 2.670353830      2.984513104
 2.984513104      2.984513104
 3.298672378      2.984513104
 3.612831652      2.984513104
 3.926990926      2.984513104
 4.241150200      2.984513104
 4.555309474      2.984513104
 4.869468749      2.984513104
 5.183628023      2.984513104
 5.497787297      2.984513104
 5.811946571      2.984513104
 6.126105845      2.984513104
 6.440265119      2.984513104
-0.157079637      3.298672378
 0.157079637      3.298672378
 0.471238911      3.298672378
 0.785398185      3.298672378
 1.099557459      3.298672378
 1.413716733      3.298672378
 1.727876008      3.298672378
 2.042035282      3.298672378
 2.356194556      3.298672378
 2.670353830      3.298672378
 2.984513104      3.298672378
 3.298672378      3.298672378
 3.612831652      3.298672378
 3.926990926      3.298672378
 4.241150200      3.298672378
 4.555309474      3.298672378
 4.869468749      3.298672378
 5.183628023      3.298672378
 5.497787297      3.298672378
 5.811946571      3.298672378
 6.126105845      3.298672378
 6.440265119      3.298672378
-0.157079637      3.612831652
 0.157079637      3.612831652
 0.471238911      3.612831652
 0.785398185      3.612831652
 1.099557459      3.612831652
 1.413716733      3.612831652
 1.727876008      3.612831652
 2.042035282      3.612831652
 2.356194556      3.612831652
 2.670353830      3.612831652
 2.984513104      3.612831652
 3.298672378      3.612831652
 3.612831652      3.612831652
 3.926990926      3.612831652
 4.241150200      3.612831652
 4.555309474      3.612831652
 4.869468749      3.612831652
 5.183628023      3.612831652
 5.497787297      3.612831652
 5.811946571      3.612831652
 6.126105845      3.612831652
 6.440265119      3.612831652
-0.157079637      3.926990926
 0.157079637      3.926990926
 0.471238911      3.926990926
 0.785398185      3.926990926
 1.099557459      3.926990926
 1.413716733      3.926990926
 1.727876008      3.926990926
 2.042035282      3.926990926
 2.356194556      3.926990926
 2.670353830      3.926990926
 2.984513104      3.926990926
 3.298672378      3.926990926
 3.612831652      3.926990926
 3.926990926      3.926990926
 4.241150200      3.926990926
 4.555309474      3.926990926
 4.869468749      3.926990926
 5.183628023      3.926990926
 5.497787297      3.926990926
 5.811946571      3.926990926
 6.126105845      3.926990926
 6.440265119      3.926990926
-0.157079637      4.241150200
 0.157079637      4.241150200
 0.471238911      4.241150200
 0.785398185      4.241150200
 1.099557459      4.241150200
 1.413716733      4.241150200
 1.727876008      4.241150200
 2.042035282      4.241150200
 2.356194556      4.241150200
 2.670353830      4.241150200
 2.984513104      4.241150200
 3.298672378      4.241150200
 3.612831652      4.241150200
 3.926990926      4.241150200
 4.241150200      4.241150200
 4.555309474      4.241150200
 4.869468749      4.241150200
 5.183628023      4.241150200
 5.497787297      4.241150200
 5.811946571      4.241150200
 6.126105845      4.241150200
 6.440265119      4.241150200
-0.157079637      4.555309474
 0.157079637      4.555309474
 0.471238911      4.555309474
 0.785398185      4.555309474
 1.099557459      4.555309474
 1.413716733      4.555309474
 1.727876008      4.555309474
 2.042035282      4.555309474
 2.356194556      4.555309474
 2.670353830      4.555309474
 2.984513104      4.555309474
 3.298672378      4.555309474
 3.612831652      4.555309474
 3.926990926      4.555309474
 4.241150200      4.555309474
 4.555309474      4.555309474
 4.869468749      4.555309474
 5.183628023      4.555309474
 5.497787297      4.555309474
 5.811946571      4.555309474
 6.126105845      4.555309474
 6.440265119      4.555309474
-0.157079637      4.869468749
 0.157079637      4.869468749
 0.471238911      4.869468749
 0.785398185      4.869468749
 1.099557459      4.869468749
 1.413716733      4.869468749
 1.727876008      4.869468749
 2.042035282      4.869468749
 2.356194556      4.869468749
 2.670353830      4.869468749
 2.984513104      4.869468749
 3.298672378      4.869468749
 3.612831652      4.869468749
 3.926990926      4.869468749
 4.241150200      4.869468749
 4.555309474      4.869468749
 4.869468749      4.869468749
 5.183628023      4.869468749
 5.497787297      4.869468749
 5.811946571      4.869468749
 6.126105845      4.869468749
 6.440265119      4.869468749
-0.157079637      5.183628023
 0.157079637      5.183628023
 0.471238911      5.183628023
 0.785398185      5.183628023
 1.099557459      5.183628023
 1.413716733      5.183628023
 1.727876008      5.183628023
 2.042035282      5.183628023
 2.356194556      5.183628023
 2.670353830      5.183628023
 2.984513104      5.183628023
 3.298672378      5.183628023
 3.612831652      5.183628023
 3.926990926      5.183628023
 4.241150200      5.183628023
 4.555309474      5.183628023
 4.869468749      5.183628023
 5.183628023      5.183628023
 5.497787297      5.183628023
 5.811946571      5.183628023
 6.126105845      5.183628023
 6.440265119      5.183628023
-0.157079637      5.497787297
 0.157079637      5.497787297
 0.471238911      5.497787297
 0.785398185      5.497787297
 1.099557459      5.497787297
 1.413716733      5.497787297
 1.727876008      5.497787297
 2.042035282      5.497787297
 2.356194556      5.497787297
 2.670353830      5.497787297
 2.984513104      5.497787297
 3.298672378      5.497787297
 3.612831652      5.497787297
 3.926990926      5.497787297
 4.241150200      5.497787297
 4.555309474      5.497787297
 4.869468749      5.497787297
 5.183628023      5.497787297
 5.497787297      5.497787297
 5.811946571      5.497787297
 6.126105845      5.497787297
 6.440265119      5.497787297
-0.157079637      5.811946571
 0.157079637      5.811946571
 0.471238911      5.811946571
 0.785398185      5.811946571
 1.099557459      5.811946571
 1.413716733      5.811946571
 1.727876008      5.811946571
 2.042035282      5.811946571
 2.356194556      5.811946571
 2.670353830      5.811946571
 2.984513104      5.811946571
 3.298672378      5.811946571
 3.612831652      5.811946571
 3.926990926      5.811946571
 4.241150200      5.811946571
 4.555309474      5.811946571
 4.869468749      5.811946571
 5.183628023      5.811946571
 5.497787297      5.811946571
 5.811946571      5.811946571
 6.126105845      5.811946571
 6.440265119      5.811946571
-0.157079637      6.126105845
 0.157079637      6.126105845
 0.471238911      6.126105845
 0.785398185      6.126105845
 1.099557459      6.126105845
 1.413716733      6.126105845
 1.727876008      6.126105845
 2.042035282      6.126105845
 2.356194556      6.126105845
 2.670353830      6.126105845
 2.984513104      6.126105845
 3.298672378      6.126105845
 3.612831652      6.126105845
 3.926990926      6.126105845
 4.241150200      6.126105845
 4.555309474      6.126105845
 4.869468749      6.126105845
 5.183628023      6.126105845
 5.497787297      6.126105845
 5.811946571      6.126105845
 6.126105845      6.126105845
 6.440265119      6.126105845
-0.157079637      6.440265119
 0.157079637      6.440265119
 0.471238911      6.440265119