 TITLE = "NAVIER-STOKES OUTPUT"
 VARIABLES = "X", "Y", "U", "V", "P", "Pex", "Vor"
 ZONE I =   21, J =   21, DATAPACKING = BLOCK, VARLOCATION=(3=CELLCENTERED, 4=CELLCENTERED,5=CELLCENTERED,6=CELLCENTERED, 7=CELLCENTERED)
  0.0000000E+00    0.3141593E+00    0.6283185E+00    0.9424778E+00    0.1256637E+01    0.1570796E+01    0.1884956E+01    0.2199115E+01    0.2513274E+01    0.2827433E+01
  0.3141593E+01    0.3455752E+01    0.3769911E+01    0.4084071E+01    0.4398230E+01    0.4712389E+01    0.5026548E+01    0.5340708E+01    0.5654867E+01    0.5969026E+01
  0.6283185E+01    0.0000000E+00    0.3141593E+00    0.6283185E+00    0.9424778E+00    0.1256637E+01    0.1570796E+01    0.1884956E+01    0.2199115E+01    0.2513274E+01
  0.2827433E+01    0.3141593E+01    0.3455752E+01    0.3769911E+01    0.4084071E+01    0.4398230E+01    0.4712389E+01    0.5026548E+01    0.5340708E+01    0.5654867E+01
  0.5969026E+01    0.6283185E+01    0.0000000E+00    0.3141593E+00    0.6283185E+00    0.9424778E+00    0.1256637E+01    0.1570796E+01    0.1884956E+01    0.2199115E+01
  0.2513274E+01    0.2827433E+01    0.3141593E+01    0.3455752E+01    0.3769911E+01    0.4084071E+01    0.4398230E+01    0.4712389E+01    0.5026548E+01    0.5340708E+01
  0.5654867E+01    0.5969026E+01    0.6283185E+01    0.0000000E+00    0.3141593E+00    0.6283185E+00    0.9424778E+00    0.1256637E+01    0.1570796E+01    0.1884956E+01
  0.2199115E+01    0.2513274E+01    0.2827433E+01    0.3141593E+01    0.3455752E+01    0.3769911E+01    0.4084071E+01    0.4398230E+01    0.4712389E+01    0.5026548E+01
  0.5340708E+01    0.5654867E+01    0.5969026E+01    0.6283185E+01    0.0000000E+00    0.3141593E+00    0.6283185E+00    0.9424778E+00    0.1256637E+01    0.1570796E+01
  0.1884956E+01    0.2199115E+01    0.2513274E+01    0.2827433E+01    0.3141593E+01    0.3455752E+01    0.3769911E+01    0.4084071E+01    0.4398230E+01    0.4712389E+01
  0.5026548E+01    0.5340708E+01    0.5654867E+01    0.5969026E+01    0.6283185E+01    0.0000000E+00    0.3141593E+00    0.6283185E+00    0.9424778E+00    0.1256637E+01
  0.1570796E+01    0.1884956E+01    0.2199115E+01    0.2513274E+01    0.2827433E+01    0.3141593E+01    0.3455752E+01    0.3769911E+01    0.4084071E+01    0.4398230E+01
  0.4712389E+01    0.5026548E+01    0.5340708E+01    0.5654867E+01    0.5969026E+01    0.6283185E+01    0.0000000E+00    0.3141593E+00    0.6283185E+00    0.9424778E+00
  0.1256637E+01    0.1570796E+01    0.1884956E+01    0.2199115E+01    0.2513274E+01    0.2827433E+01    0.3141593E+01    0.3455752E+01    0.3769911E+01    0.4084071E+01
  0.4398230E+01    0.4712389E+01    0.5026548E+01    0.5340708E+01    0.5654867E+01    0.5969026E+01    0.6283185E+01    0.0000000E+00    0.3141593E+00    0.6283185E+00
  0.9424778E+00    0.1256637E+01    0.1570796E+01    0.1884956E+01    0.2199115E+01    0.2513274E+01    0.2827433E+01    0.3141593E+01    0.3455752E+01    0.3769911E+01
  0.4084071E+01    0.4398230E+01    0.4712389E+01    0.5026548E+01    0.5340708E+01    0.5654867E+01    0.5969026E+01    0.6283185E+01    0.0000000E+00    0.3141593E+00
  0.6283185E+00    0.9424778E+00    0.1256637E+01    0.1570796E+01    0.1884956E+01    0.2199115E+01    0.2513274E+01    0.2827433E+01    0.3141593E+01    0.3455752E+01
  0.3769911E+01    0.4084071E+01    0.4398230E+01    0.4712389E+01    0.5026548E+01    0.5340708E+01    0.5654867E+01    0.5969026E+01    0.6283185E+01    0.0000000E+00
  0.3141593E+00    0.6283185E+00    0.9424778E+00    0.1256637E+01    0.1570796E+01    0.1884956E+01    0.2199115E+01    0.2513274E+01    0.2827433E+01    0.3141593E+01
  0.3455752E+01    0.3769911E+01    0.4084071E+01    0.4398230E+01    0.4712389E+01    0.5026548E+01    0.5340708E+01    0.5654867E+01    0.5969026E+01    0.6283185E+01
  0.0000000E+00    0.3141593E+00    0.6283185E+00    0.9424778E+00    0.1256637E+01    0.1570796E+01    0.1884956E+01    0.2199115E+01    0.2513274E+01    0.2827433E+01
  0.3141593E+01    0.3455752E+01    0.3769911E+01    0.4084071E+01    0.4398230E+01    0.4712389E+01    0.5026548E+01    0.5340708E+01    0.5654867E+01    0.5969026E+01
  0.6283185E+01    0.0000000E+00    0.3141593E+00    0.6283185E+00    0.9424778E+00    0.1256637E+01    0.1570796E+01    0.1884956E+01    0.2199115E+01    0.2513274E+01
  0.2827433E+01    0.3141593E+01    0.3455752E+01    0.3769911E+01    0.4084071E+01    0.4398230E+01    0.4712389E+01    0.5026548E+01    0.5340708E+01    0.5654867E+01
  0.5969026E+01    0.6283185E+01    0.0000000E+00    0.3141593E+00    0.6283185E+00    0.9424778E+00    0.1256637E+01    0.1570796E+01    0.1884956E+01    0.2199115E+01
  0.2513274E+01    0.2827433E+01    0.3141593E+01    0.3455752E+01    0.3769911E+01    0.4084071E+01    0.4398230E+01    0.4712389E+01    0.5026548E+01    0.5340708E+01
  0.5654867E+01    0.5969026E+01    0.6283185E+01    0.0000000E+00    0.3141593E+00    0.6283185E+00    0.9424778E+00    0.1256637E+01    0.1570796E+01    0.1884956E+01
  0.2199115E+01    0.2513274E+01    0.2827433E+01    0.3141593E+01    0.3455752E+01    0.3769911E+01    0.4084071E+01    0.4398230E+01    0.4712389E+01    0.5026548E+01
  0.5340708E+01    0.5654867E+01    0.5969026E+01    0.6283185E+01    0.0000000E+00    0.3141593E+00    0.6283185E+00    0.9424778E+00    0.1256637E+01    0.1570796E+01
  0.1884956E+01    0.2199115E+01    0.2513274E+01    0.2827433E+01    0.3141593E+01    0.3455752E+01    0.3769911E+01    0.4084071E+01    0.4398230E+01    0.4712389E+01
  0.5026548E+01    0.5340708E+01    0.5654867E+01    0.5969026E+01    0.6283185E+01    0.0000000E+00    0.3141593E+00    0.6283185E+00    0.9424778E+00    0.1256637E+01
  0.1570796E+01    0.1884956E+01    0.2199115E+01    0.2513274E+01    0.2827433E+01    0.3141593E+01    0.3455752E+01    0.3769911E+01    0.4084071E+01    0.4398230E+01
  0.4712389E+01    0.5026548E+01    0.5340708E+01    0.5654867E+01    0.5969026E+01    0.6283185E+01    0.0000000E+00    0.3141593E+00    0.6283185E+00    0.9424778E+00
  0.1256637E+01    0.1570796E+01    0.1884956E+01    0.2199115E+01    0.2513274E+01    0.2827433E+01    0.3141593E+01    0.3455752E+01    0.3769911E+01    0.4084071E+01
  0.4398230E+01    0.4712389E+01    0.5026548E+01    0.5340708E+01    0.5654867E+01    0.5969026E+01    0.6283185E+01    0.0000000E+00    0.3141593E+00    0.6283185E+00
  0.9424778E+00    0.1256637E+01    0.1570796E+01    0.1884956E+01    0.2199115E+01    0.2513274E+01    0.2827433E+01    0.3141593E+01    0.3455752E+01    0.3769911E+01
  0.4084071E+01    0.4398230E+01    0.4712389E+01    0.5026548E+01    0.5340708E+01    0.5654867E+01    0.5969026E+01    0.6283185E+01    0.0000000E+00    0.3141593E+00
  0.6283185E+00    0.9424778E+00    0.1256637E+01    0.1570796E+01    0.1884956E+01    0.2199115E+01    0.2513274E+01    0.2827433E+01    0.3141593E+01    0.3455752E+01
  0.3769911E+01    0.4084071E+01    0.4398230E+01    0.4712389E+01    0.5026548E+01    0.5340708E+01    0.5654867E+01    0.5969026E+01    0.6283185E+01    0.0000000E+00
  0.3141593E+00    0.6283185E+00    0.9424778E+00    0.1256637E+01    0.1570796E+01    0.1884956E+01    0.2199115E+01    0.2513274E+01    0.2827433E+01    0.3141593E+01
  0.3455752E+01    0.3769911E+01    0.4084071E+01    0.4398230E+01    0.4712389E+01    0.5026548E+01    0.5340708E+01    0.5654867E+01    0.5969026E+01    0.6283185E+01
  0.0000000E+00    0.3141593E+00    0.6283185E+00    0.9424778E+00    0.1256637E+01    0.1570796E+01    0.1884956E+01    0.2199115E+01    0.2513274E+01    0.2827433E+01
  0.3141593E+01    0.3455752E+01    0.3769911E+01    0.4084071E+01    0.4398230E+01    0.4712389E+01    0.5026548E+01    0.5340708E+01    0.5654867E+01    0.5969026E+01
  0.6283185E+01    0.0000000E+00    0.0000000E+00    0.0000000E+00    0.0000000E+00    0.0000000E+00    0.0000000E+00    0.0000000E+00    0.0000000E+00    0.0000000E+00
  0.0000000E+00    0.0000000E+00    0.0000000E+00    0.0000000E+00    0.0000000E+00    0.0000000E+00    0.0000000E+00    0.0000000E+00    0.0000000E+00    0.0000000E+00
  0.0000000E+00    0.0000000E+00    0.3141593E+00    0.3141593E+00    0.3141593E+00    0.3141593E+00    0.3141593E+00    0.3141593E+00    0.3141593E+00    0.3141593E+00
  0.3141593E+00    0.3141593E+00    0.3141593E+00    0.3141593E+00    0.3141593E+00    0.3141593E+00    0.3141593E+00    0.3141593E+00    0.3141593E+00    0.3141593E+00
  0.3141593E+00    0.3141593E+00    0.3141593E+00    0.6283185E+00    0.6283185E+00    0.6283185E+00    0.6283185E+00    0.6283185E+00    0.6283185E+00    0.6283185E+00
  0.6283185E+00    0.6283185E+00    0.6283185E+00    0.6283185E+00    0.6283185E+00    0.6283185E+00    0.6283185E+00    0.6283185E+00    0.6283185E+00    0.6283185E+00
  0.6283185E+00    0.6283185E+00    0.6283185E+00    0.6283185E+00    0.9424778E+00    0.9424778E+00    0.9424778E+00    0.9424778E+00    0.9424778E+00    0.9424778E+00
  0.9424778E+00    0.9424778E+00    0.9424778E+00    0.9424778E+00    0.9424778E+00    0.9424778E+00    0.9424778E+00    0.9424778E+00    0.9424778E+00    0.9424778E+00
  0.9424778E+00    0.9424778E+00    0.9424778E+00    0.9424778E+00    0.9424778E+00    0.1256637E+01    0.1256637E+01    0.1256637E+01    0.1256637E+01    0.1256637E+01
  0.1256637E+01    0.1256637E+01    0.1256637E+01    0.1256637E+01    0.1256637E+01    0.1256637E+01    0.1256637E+01    0.1256637E+01    0.1256637E+01    0.1256637E+01
  0.1256637E+01    0.1256637E+01    0.1256637E+01    0.1256637E+01    0.1256637E+01    0.1256637E+01    0.1570796E+01    0.1570796E+01    0.1570796E+01    0.1570796E+01
  0.1570796E+01    0.1570796E+01    0.1570796E+01    0.1570796E+01    0.1570796E+01    0.1570796E+01    0.1570796E+01    0.1570796E+01    0.1570796E+01    0.1570796E+01
  0.1570796E+01    0.1570796E+01    0.1570796E+01    0.1570796E+01    0.1570796E+01    0.1570796E+01    0.1570796E+01    0.1884956E+01    0.1884956E+01    0.1884956E+01
  0.1884956E+01    0.1884956E+01    0.1884956E+01    0.1884956E+01    0.1884956E+01    0.1884956E+01    0.1884956E+01    0.1884956E+01    0.1884956E+01    0.1884956E+01
  0.1884956E+01    0.1884956E+01    0.1884956E+01    0.1884956E+01    0.1884956E+01    0.1884956E+01    0.1884956E+01    0.1884956E+01    0.2199115E+01    0.2199115E+01
  0.2199115E+01    0.2199115E+01    0.2199115E+01    0.2199115E+01    0.2199115E+01    0.2199115E+01    0.2199115E+01    0.2199115E+01    0.2199115E+01    0.2199115E+01
  0.2199115E+01    0.2199115E+01    0.2199115E+01    0.2199115E+01    0.2199115E+01    0.2199115E+01    0.2199115E+01    0.2199115E+01    0.2199115E+01    0.2513274E+01
  0.2513274E+01    0.2513274E+01    0.2513274E+01    0.2513274E+01    0.2513274E+01    0.2513274E+01    0.2513274E+01    0.2513274E+01    0.2513274E+01    0.2513274E+01
  0.2513274E+01    0.2513274E+01    0.2513274E+01    0.2513274E+01    0.2513274E+01    0.2513274E+01    0.2513274E+01    0.2513274E+01    0.2513274E+01    0.2513274E+01
  0.2827433E+01    0.2827433E+01    0.2827433E+01    0.2827433E+01    0.2827433E+01    0.2827433E+01    0.2827433E+01    0.2827433E+01    0.2827433E+01    0.2827433E+01
  0.2827433E+01    0.2827433E+01    0.2827433E+01    0.2827433E+01    0.2827433E+01    0.2827433E+01    0.2827433E+01    0.2827433E+01    0.2827433E+01    0.2827433E+01
  0.2827433E+01    0.3141593E+01    0.3141593E+01    0.3141593E+01    0.3141593E+01    0.3141593E+01    0.3141593E+01    0.3141593E+01    0.3141593E+01    0.3141593E+01
  0.3141593E+01    0.3141593E+01    0.3141593E+01    0.3141593E+01    0.3141593E+01    0.3141593E+01    0.3141593E+01    0.3141593E+01    0.3141593E+01    0.3141593E+01
  0.3141593E+01    0.3141593E+01    0.3455752E+01    0.3455752E+01    0.3455752E+01    0.3455752E+01    0.3455752E+01    0.3455752E+01    0.3455752E+01    0.3455752E+01
  0.3455752E+01    0.3455752E+01    0.3455752E+01    0.3455752E+01    0.3455752E+01    0.3455752E+01    0.3455752E+01    0.3455752E+01    0.3455752E+01    0.3455752E+01
  0.3455752E+01    0.3455752E+01    0.3455752E+01    0.3769911E+01    0.3769911E+01    0.3769911E+01    0.3769911E+01    0.3769911E+01    0.3769911E+01    0.3769911E+01
  0.3769911E+01    0.3769911E+01    0.3769911E+01    0.3769911E+01    0.3769911E+01    0.3769911E+01    0.3769911E+01    0.3769911E+01    0.3769911E+01    0.3769911E+01
  0.3769911E+01    0.3769911E+01    0.3769911E+01    0.3769911E+01    0.4084071E+01    0.4084071E+01    0.4084071E+01    0.4084071E+01    0.4084071E+01    0.4084071E+01
  0.4084071E+01    0.4084071E+01    0.4084071E+01    0.4084071E+01    0.4084071E+01    0.4084071E+01    0.4084071E+01    0.4084071E+01    0.4084071E+01    0.4084071E+01
  0.4084071E+01    0.4084071E+01    0.4084071E+01    0.4084071E+01    0.4084071E+01    0.4398230E+01    0.4398230E+01    0.4398230E+01    0.4398230E+01    0.4398230E+01
  0.4398230E+01    0.4398230E+01    0.4398230E+01    0.4398230E+01    0.4398230E+01    0.4398230E+01    0.4398230E+01    0.4398230E+01    0.4398230E+01    0.4398230E+01
  0.4398230E+01    0.4398230E+01    0.4398230E+01    0.4398230E+01    0.4398230E+01    0.4398230E+01    0.4712389E+01    0.4712389E+01    0.4712389E+01    0.4712389E+01
  0.4712389E+01    0.4712389E+01    0.4712389E+01    0.4712389E+01    0.4712389E+01    0.4712389E+01    0.4712389E+01    0.4712389E+01    0.4712389E+01    0.4712389E+01
  0.4712389E+01    0.4712389E+01    0.4712389E+01    0.4712389E+01    0.4712389E+01    0.4712389E+01    0.4712389E+01    0.5026548E+01    0.5026548E+01    0.5026548E+01
  0.5026548E+01    0.5026548E+01    0.5026548E+01    0.5026548E+01    0.5026548E+01    0.5026548E+01    0.5026548E+01    0.5026548E+01    0.5026548E+01    0.5026548E+01
  0.5026548E+01    0.5026548E+01    0.5026548E+01    0.5026548E+01    0.5026548E+01    0.5026548E+01    0.5026548E+01    0.5026548E+01    0.5340708E+01    0.5340708E+01
  0.5340708E+01    0.5340708E+01    0.5340708E+01    0.5340708E+01    0.5340708E+01    0.5340708E+01    0.5340708E+01    0.5340708E+01    0.5340708E+01    0.5340708E+01
  0.5340708E+01    0.5340708E+01    0.5340708E+01    0.5340708E+01    0.5340708E+01    0.5340708E+01    0.5340708E+01    0.5340708E+01    0.5340708E+01    0.5654867E+01
  0.5654867E+01    0.5654867E+01    0.5654867E+01    0.5654867E+01    0.5654867E+01    0.5654867E+01    0.5654867E+01    0.5654867E+01    0.5654867E+01    0.5654867E+01
  0.5654867E+01    0.5654867E+01    0.5654867E+01    0.5654867E+01    0.5654867E+01    0.5654867E+01    0.5654867E+01    0.5654867E+01    0.5654867E+01    0.5654867E+01
  0.5969026E+01    0.5969026E+01    0.5969026E+01    0.5969026E+01    0.5969026E+01    0.5969026E+01    0.5969026E+01    0.5969026E+01    0.5969026E+01    0.5969026E+01
  0.5969026E+01    0.5969026E+01    0.5969026E+01    0.5969026E+01    0.5969026E+01    0.5969026E+01    0.5969026E+01    0.5969026E+01    0.5969026E+01    0.5969026E+01
  0.5969026E+01    0.6283185E+01    0.6283185E+01    0.6283185E+01    0.6283185E+01    0.6283185E+01    0.6283185E+01    0.6283185E+01    0.6283185E+01    0.6283185E+01
  0.6283185E+01    0.6283185E+01    0.6283185E+01    0.6283185E+01    0.6283185E+01    0.6283185E+01    0.6283185E+01    0.6283185E+01    0.6283185E+01    0.6283185E+01
  0.6283185E+01    0.6283185E+01   -0.3121826E-01   -0.2816255E-01   -0.2235005E-01   -0.1434989E-01   -0.4944852E-02    0.4944810E-02    0.1435099E-01    0.2235360E-01
  0.2816829E-01    0.3121726E-01    0.3121062E-01    0.2815707E-01    0.2234637E-01    0.1434725E-01    0.4943367E-02   -0.4945888E-02   -0.1435083E-01   -0.2235023E-01
 -0.2816320E-01   -0.3121906E-01   -0.9059591E-01   -0.8172701E-01   -0.6485768E-01   -0.4163917E-01   -0.1434397E-01    0.1435634E-01    0.4165221E-01    0.6487122E-01
  0.8173830E-01    0.9059764E-01    0.9058855E-01    0.8171838E-01    0.6485058E-01    0.4163454E-01    0.1434254E-01   -0.1435466E-01   -0.4164726E-01   -0.6486312E-01
 -0.8173074E-01   -0.9059826E-01   -0.1411058E+00   -0.1272916E+00   -0.1010167E+00   -0.6485281E-01   -0.2233964E-01    0.2236137E-01    0.6487413E-01    0.1010361E+00
  0.1273055E+00    0.1411093E+00    0.1411001E+00    0.1272829E+00    0.1010085E+00    0.6484736E-01    0.2233832E-01   -0.2235827E-01   -0.6486715E-01   -0.1010269E+00
 -0.1272983E+00   -0.1411096E+00   -0.1778035E+00   -0.1603963E+00   -0.1272880E+00   -0.8171895E-01   -0.2814969E-01    0.2817599E-01    0.8174387E-01    0.1273093E+00
  0.1604108E+00    0.1778076E+00    0.1777991E+00    0.1603887E+00    0.1272801E+00    0.8171342E-01    0.2814823E-01   -0.2817301E-01   -0.8173733E-01   -0.1273012E+00
 -0.1604049E+00   -0.1778076E+00   -0.1970958E+00   -0.1778003E+00   -0.1410997E+00   -0.9058647E-01   -0.3120507E-01    0.3123156E-01    0.9061106E-01    0.1411201E+00
  0.1778139E+00    0.1971003E+00    0.1970930E+00    0.1777940E+00    0.1410927E+00    0.9058116E-01    0.3120313E-01   -0.3122978E-01   -0.9060638E-01   -0.1411145E+00
 -0.1778101E+00   -0.1971010E+00   -0.1970959E+00   -0.1778003E+00   -0.1410999E+00   -0.9058700E-01   -0.3120617E-01    0.3122978E-01    0.9060865E-01    0.1411174E+00
  0.1778115E+00    0.1970991E+00    0.1970931E+00    0.1777948E+00    0.1410937E+00    0.9058185E-01    0.3120349E-01   -0.3122962E-01   -0.9060642E-01   -0.1411147E+00
 -0.1778104E+00   -0.1971017E+00   -0.1778030E+00   -0.1603960E+00   -0.1272882E+00   -0.8172010E-01   -0.2815231E-01    0.2817147E-01    0.8173743E-01    0.1273018E+00
  0.1604042E+00    0.1778044E+00    0.1777996E+00    0.1603909E+00    0.1272824E+00    0.8171503E-01    0.2814896E-01   -0.2817290E-01   -0.8173757E-01   -0.1273017E+00
 -0.1604053E+00   -0.1778079E+00   -0.1411041E+00   -0.1272904E+00   -0.1010161E+00   -0.6485338E-01   -0.2234205E-01    0.2235634E-01    0.6486611E-01    0.1010259E+00
  0.1272960E+00    0.1411050E+00    0.1411014E+00    0.1272859E+00    0.1010110E+00    0.6484854E-01    0.2233825E-01   -0.2235901E-01   -0.6486803E-01   -0.1010278E+00
 -0.1272989E+00   -0.1411094E+00   -0.9059379E-01   -0.8172466E-01   -0.6485558E-01   -0.4163779E-01   -0.1434410E-01    0.1435368E-01    0.4164623E-01    0.6486178E-01
  0.8172782E-01    0.9059341E-01    0.9059084E-01    0.8172059E-01    0.6485101E-01    0.4163329E-01    0.1434011E-01   -0.1435706E-01   -0.4164937E-01   -0.6486521E-01
 -0.8173211E-01   -0.9059931E-01   -0.3121570E-01   -0.2815911E-01   -0.2234620E-01   -0.1434594E-01   -0.4941430E-02    0.4946751E-02    0.1435047E-01    0.2234917E-01
  0.2815997E-01    0.3121396E-01    0.3121229E-01    0.2815535E-01    0.2234220E-01    0.1434188E-01    0.4937592E-02   -0.4950432E-02   -0.1435432E-01   -0.2235338E-01
 -0.2816489E-01   -0.3121982E-01    0.3121959E-01    0.2816361E-01    0.2235102E-01    0.1435059E-01    0.4945433E-02   -0.4943932E-02   -0.1434954E-01   -0.2235067E-01
 -0.2816415E-01   -0.3122095E-01   -0.3122172E-01   -0.2816644E-01   -0.2235423E-01   -0.1435397E-01   -0.4948905E-02    0.4940216E-02    0.1434547E-01    0.2234615E-01
  0.2815907E-01    0.3121545E-01    0.9059795E-01    0.8172928E-01    0.6486042E-01    0.4164257E-01    0.1434835E-01   -0.1435048E-01   -0.4164470E-01   -0.6486260E-01
 -0.8173139E-01   -0.9059979E-01   -0.9059982E-01   -0.8173145E-01   -0.6486279E-01   -0.4164524E-01   -0.1435143E-01    0.1434695E-01    0.4164053E-01    0.6485773E-01
  0.8172591E-01    0.9059351E-01    0.1411074E+00    0.1272944E+00    0.1010207E+00    0.6485819E-01    0.2234668E-01   -0.2235238E-01   -0.6486358E-01   -0.1010255E+00
 -0.1272983E+00   -0.1411103E+00   -0.1411096E+00   -0.1272962E+00   -0.1010224E+00   -0.6486023E-01   -0.2234928E-01    0.2234898E-01    0.6485924E-01    0.1010205E+00
  0.1272929E+00    0.1411047E+00    0.1778063E+00    0.1603998E+00    0.1272926E+00    0.8172492E-01    0.2815734E-01   -0.2816665E-01   -0.8173356E-01   -0.1272997E+00
 -0.1604048E+00   -0.1778083E+00   -0.1778067E+00   -0.1604003E+00   -0.1272933E+00   -0.8172616E-01   -0.2815952E-01    0.2816323E-01    0.8172907E-01    0.1272945E+00
  0.1603994E+00    0.1778034E+00    0.1970987E+00    0.1778037E+00    0.1411038E+00    0.9059157E-01    0.3121131E-01   -0.3122430E-01   -0.9060345E-01   -0.1411136E+00
 -0.1778103E+00   -0.1971014E+00   -0.1970989E+00   -0.1778034E+00   -0.1411035E+00   -0.9059208E-01   -0.3121325E-01    0.3122079E-01    0.9059846E-01    0.1411076E+00
  0.1778041E+00    0.1970952E+00    0.1970971E+00    0.1778023E+00    0.1411025E+00    0.9059012E-01    0.3120966E-01   -0.3122605E-01   -0.9060518E-01   -0.1411150E+00
 -0.1778109E+00   -0.1971012E+00   -0.1970979E+00   -0.1778015E+00   -0.1411014E+00   -0.9059001E-01   -0.3121132E-01    0.3122221E-01    0.9059939E-01    0.1411083E+00
  0.1778044E+00    0.1970958E+00    0.1778051E+00    0.1603976E+00    0.1272894E+00    0.8172100E-01    0.2815274E-01   -0.2817163E-01   -0.8173840E-01   -0.1273036E+00
 -0.1604068E+00   -0.1778077E+00   -0.1778034E+00   -0.1603951E+00   -0.1272871E+00   -0.8172008E-01   -0.2815425E-01    0.2816733E-01    0.8173192E-01    0.1272962E+00
  0.1604000E+00    0.1778032E+00    0.1411062E+00    0.1272913E+00    0.1010162E+00    0.6485249E-01    0.2234002E-01   -0.2235966E-01   -0.6487060E-01   -0.1010311E+00
 -0.1273012E+00   -0.1411092E+00   -0.1411045E+00   -0.1272883E+00   -0.1010131E+00   -0.6485114E-01   -0.2234155E-01    0.2235514E-01    0.6486347E-01    0.1010227E+00
  0.1272934E+00    0.1411028E+00    0.9059349E-01    0.8172436E-01    0.6485480E-01    0.4163607E-01    0.1434094E-01   -0.1435836E-01   -0.4165223E-01   -0.6486852E-01
 -0.8173400E-01   -0.9059809E-01   -0.9059389E-01   -0.8172215E-01   -0.6485204E-01   -0.4163499E-01   -0.1434247E-01    0.1435402E-01    0.4164522E-01    0.6486062E-01
  0.8172723E-01    0.9059330E-01    0.3121710E-01    0.2815942E-01    0.2234590E-01    0.1434484E-01    0.4939146E-02   -0.4950116E-02   -0.1435475E-01   -0.2235393E-01
 -0.2816437E-01   -0.3121854E-01   -0.3121687E-01   -0.2815857E-01   -0.2234475E-01   -0.1434489E-01   -0.4940751E-02    0.4946913E-02    0.1434992E-01    0.2234928E-01
  0.2816142E-01    0.3121650E-01    0.3122157E-01    0.9059973E-01    0.1411095E+00    0.1778056E+00    0.1970955E+00    0.1970885E+00    0.1777832E+00    0.1410682E+00
  0.9053296E-01    0.3112342E-01   -0.3128350E-01   -0.9064032E-01   -0.1411347E+00   -0.1778184E+00   -0.1971030E+00   -0.1970982E+00   -0.1777991E+00   -0.1410999E+00
 -0.9059105E-01   -0.3121061E-01    0.2816555E-01    0.8173108E-01    0.1272963E+00    0.1604000E+00    0.1778008E+00    0.1777933E+00    0.1603763E+00    0.1272535E+00
  0.8166602E-01    0.2808196E-01   -0.2822636E-01   -0.8177352E-01   -0.1273231E+00   -0.1604150E+00   -0.1778103E+00   -0.1778046E+00   -0.1603954E+00   -0.1272880E+00
 -0.8172243E-01   -0.2815607E-01    0.2235209E-01    0.6486152E-01    0.1010218E+00    0.1272922E+00    0.1411002E+00    0.1410926E+00    0.1272685E+00    0.1009804E+00
  0.6480265E-01    0.2228217E-01   -0.2240829E-01   -0.6490400E-01   -0.1010505E+00   -0.1273105E+00   -0.1411136E+00   -0.1411075E+00   -0.1272911E+00   -0.1010165E+00
 -0.6485490E-01   -0.2234488E-01    0.1435002E-01    0.4164225E-01    0.6485779E-01    0.8172327E-01    0.9058675E-01    0.9057942E-01    0.8170100E-01    0.6482045E-01
  0.4159173E-01    0.1429243E-01   -0.1440098E-01   -0.4168345E-01   -0.6488811E-01   -0.8174510E-01   -0.9060458E-01   -0.9059868E-01   -0.8172688E-01   -0.6485686E-01
 -0.4163941E-01   -0.1434658E-01    0.4943144E-02    0.1434646E-01    0.2234466E-01    0.2815408E-01    0.3120525E-01    0.3119864E-01    0.2813435E-01    0.2231258E-01
  0.1430449E-01    0.4896325E-02   -0.4989126E-02   -0.1438576E-01   -0.2237600E-01   -0.2817902E-01   -0.3122725E-01   -0.3122194E-01   -0.2816280E-01   -0.2234873E-01
 -0.1434832E-01   -0.4944244E-02   -0.4947583E-02   -0.1435379E-01   -0.2235596E-01   -0.2817137E-01   -0.3123145E-01   -0.3123716E-01   -0.2818817E-01   -0.2238268E-01
 -0.1438798E-01   -0.4985260E-02    0.4905869E-02    0.1431652E-01    0.2232423E-01    0.2814412E-01    0.3120612E-01    0.3121072E-01    0.2815791E-01    0.2234702E-01
  0.1434735E-01    0.4942191E-02   -0.1435457E-01   -0.4164940E-01   -0.6486858E-01   -0.8173972E-01   -0.9061176E-01   -0.9061652E-01   -0.8175364E-01   -0.6489038E-01
 -0.4167674E-01   -0.1438432E-01    0.1431572E-01    0.4161371E-01    0.6483668E-01    0.8171079E-01    0.9058403E-01    0.9058781E-01    0.8172214E-01    0.6485530E-01
  0.4163853E-01    0.1434470E-01   -0.2235648E-01   -0.6486829E-01   -0.1010318E+00   -0.1273074E+00   -0.1411232E+00   -0.1411272E+00   -0.1273188E+00   -0.1010494E+00
 -0.6489017E-01   -0.2238010E-01    0.2231985E-01    0.6483385E-01    0.1009999E+00    0.1272774E+00    0.1410939E+00    0.1410970E+00    0.1272866E+00    0.1010149E+00
  0.6485358E-01    0.2234271E-01   -0.2816994E-01   -0.8173761E-01   -0.1273057E+00   -0.1604139E+00   -0.1778216E+00   -0.1778249E+00   -0.1604233E+00   -0.1273202E+00
 -0.8175551E-01   -0.2818925E-01    0.2813521E-01    0.8170428E-01    0.1272740E+00    0.1603834E+00    0.1777914E+00    0.1777940E+00    0.1603910E+00    0.1272862E+00
  0.8172030E-01    0.2815371E-01   -0.3122676E-01   -0.9060655E-01   -0.1411187E+00   -0.1778189E+00   -0.1971148E+00   -0.1971176E+00   -0.1778269E+00   -0.1411309E+00
 -0.9062151E-01   -0.3124279E-01    0.3119289E-01    0.9057387E-01    0.1410872E+00    0.1777882E+00    0.1970842E+00    0.1970864E+00    0.1777946E+00    0.1410976E+00
  0.9058740E-01    0.3120852E-01   -0.3122720E-01   -0.9060682E-01   -0.1411188E+00   -0.1778188E+00   -0.1971144E+00   -0.1971168E+00   -0.1778259E+00   -0.1411296E+00
 -0.9062010E-01   -0.3124148E-01    0.3119399E-01    0.9057452E-01    0.1410874E+00    0.1777880E+00    0.1970837E+00    0.1970857E+00    0.1777939E+00    0.1410968E+00
  0.9058662E-01    0.3120782E-01   -0.2817100E-01   -0.8173822E-01   -0.1273058E+00   -0.1604134E+00   -0.1778203E+00   -0.1778226E+00   -0.1604201E+00   -0.1273162E+00
 -0.8175118E-01   -0.2818511E-01    0.2813853E-01    0.8170636E-01    0.1272748E+00    0.1603829E+00    0.1777900E+00    0.1777920E+00    0.1603888E+00    0.1272840E+00
  0.8171838E-01    0.2815216E-01   -0.2235824E-01   -0.6486935E-01   -0.1010321E+00   -0.1273067E+00   -0.1411213E+00   -0.1411237E+00   -0.1273136E+00   -0.1010429E+00
 -0.6488284E-01   -0.2237299E-01    0.2232559E-01    0.6483754E-01    0.1010012E+00    0.1272766E+00    0.1410916E+00    0.1410938E+00    0.1272830E+00    0.1010114E+00
  0.6485059E-01    0.2234034E-01   -0.1435714E-01   -0.4165113E-01   -0.6486939E-01   -0.8173932E-01   -0.9060966E-01   -0.9061231E-01   -0.8174703E-01   -0.6488144E-01
 -0.4166639E-01   -0.1437405E-01    0.1432426E-01    0.4161915E-01    0.6483868E-01    0.8170986E-01    0.9058088E-01    0.9058339E-01    0.8171734E-01    0.6485051E-01
  0.4163412E-01    0.1434099E-01   -0.4950577E-02   -0.1435597E-01   -0.2235725E-01   -0.2817139E-01   -0.3122958E-01   -0.3123268E-01   -0.2818043E-01   -0.2237159E-01
 -0.1437442E-01   -0.4971271E-02    0.4917523E-02    0.1432396E-01    0.2232709E-01    0.2814301E-01    0.3120222E-01    0.3120536E-01    0.2815197E-01    0.2234118E-01
  0.1434217E-01    0.4937936E-02    0.4939506E-02    0.1434369E-01    0.2234271E-01    0.2815331E-01    0.3120636E-01    0.3120271E-01    0.2814247E-01    0.2232535E-01
  0.1432133E-01    0.4914415E-02   -0.4974114E-02   -0.1437631E-01   -0.2237249E-01   -0.2818041E-01   -0.3123176E-01   -0.3122812E-01   -0.2816960E-01   -0.2235517E-01
 -0.1435391E-01   -0.4948709E-02    0.1434619E-01    0.4163908E-01    0.6485517E-01    0.8172154E-01    0.9058673E-01    0.9058236E-01    0.8170857E-01    0.6483420E-01
  0.4161161E-01    0.1431512E-01   -0.1438246E-01   -0.4167254E-01   -0.6488449E-01   -0.8174683E-01   -0.9060974E-01   -0.9060548E-01   -0.8173399E-01   -0.6486375E-01
 -0.4164554E-01   -0.1435163E-01    0.2234916E-01    0.6485876E-01    0.1010190E+00    0.1272900E+00    0.1410992E+00    0.1410941E+00    0.1272747E+00    0.1009939E+00
  0.6482513E-01    0.2231070E-01   -0.2238681E-01   -0.6489276E-01   -0.1010473E+00   -0.1273129E+00   -0.1411192E+00   -0.1411141E+00   -0.1272981E+00   -0.1010233E+00
 -0.6486043E-01   -0.2234916E-01    0.2816306E-01    0.8172872E-01    0.1272938E+00    0.1603977E+00    0.1777991E+00    0.1777932E+00    0.1603804E+00    0.1272650E+00
  0.8168963E-01    0.2811836E-01   -0.2820354E-01   -0.8176393E-01   -0.1273213E+00   -0.1604181E+00   -0.1778160E+00   -0.1778104E+00   -0.1604016E+00   -0.1272943E+00
 -0.8172657E-01   -0.2815881E-01    0.3122024E-01    0.9059811E-01    0.1411073E+00    0.1778037E+00    0.1970937E+00    0.1970871E+00    0.1777849E+00    0.1410759E+00
  0.9055462E-01    0.3117141E-01   -0.3126246E-01   -0.9063494E-01   -0.1411344E+00   -0.1778218E+00   -0.1971088E+00   -0.1971021E+00   -0.1778041E+00   -0.1411063E+00
 -0.9059364E-01   -0.3121284E-01   -0.1830104E-02   -0.7275737E-04    0.2782149E-02    0.5572258E-02    0.7372363E-02    0.7442059E-02    0.5688763E-02    0.2959107E-02
  0.2234040E-03   -0.1514355E-02   -0.1426559E-02    0.3626639E-03    0.2982626E-02    0.5890939E-02    0.7698864E-02    0.7440827E-02    0.5810963E-02    0.3091580E-02
 -0.8351944E-04   -0.1728687E-02   -0.4322725E-04    0.1726539E-02    0.4569881E-02    0.7381553E-02    0.9169804E-02    0.9212247E-02    0.7479070E-02    0.4730053E-02
  0.1956443E-02    0.1880014E-03    0.2912344E-03    0.2077155E-02    0.4745393E-02    0.7634031E-02    0.9414270E-02    0.9212626E-02    0.7547400E-02    0.4786715E-02
  0.1700746E-02    0.2080477E-04    0.2819457E-02    0.4584521E-02    0.7450393E-02    0.1026995E-01    0.1202322E-01    0.1208169E-01    0.1034522E-01    0.7555625E-02
  0.4803699E-02    0.3014970E-02    0.3063940E-02    0.4891570E-02    0.7589638E-02    0.1041428E-01    0.1224285E-01    0.1207259E-01    0.1031534E-01    0.7617621E-02
  0.4575832E-02    0.2773947E-02    0.5591144E-02    0.7379245E-02    0.1025260E-01    0.1305324E-01    0.1483342E-01    0.1489554E-01    0.1312228E-01    0.1036816E-01
  0.7617418E-02    0.5776630E-02    0.5853064E-02    0.7689013E-02    0.1035219E-01    0.1322238E-01    0.1505958E-01    0.1483859E-01    0.1313943E-01    0.1044821E-01