 TITLE = "NAVIER-STOKES OUTPUT"
 VARIABLES = "X", "Y", "U", "V", "P", "Pex", "Vor"
 ZONE I =   21, J =   21, DATAPACKING = BLOCK, VARLOCATION=(3=CELLCENTERED, 4=CELLCENTERED,5=CELLCENTERED,6=CELLCENTERED, 7=CELLCENTERED)
  0.0000000E+00    0.3141593E+00    0.6283185E+00    0.9424778E+00    0.1256637E+01    0.1570796E+01    0.1884956E+01    0.2199115E+01    0.2513274E+01    0.2827433E+01
  0.3141593E+01    0.3455752E+01    0.3769911E+01    0.4084071E+01    0.4398230E+01    0.4712389E+01    0.5026548E+01    0.5340708E+01    0.5654867E+01    0.5969026E+01
  0.6283185E+01    0.0000000E+00    0.3141593E+00    0.6283185E+00    0.9424778E+00    0.1256637E+01    0.1570796E+01    0.1884956E+01    0.2199115E+01    0.2513274E+01
  0.2827433E+01    0.3141593E+01    0.3455752E+01    0.3769911E+01    0.4084071E+01    0.4398230E+01    0.4712389E+01    0.5026548E+01    0.5340708E+01    0.5654867E+01
  0.5969026E+01    0.6283185E+01    0.0000000E+00    0.3141593E+00    0.6283185E+00    0.9424778E+00    0.1256637E+01    0.1570796E+01    0.1884956E+01    0.2199115E+01
  0.2513274E+01    0.2827433E+01    0.3141593E+01    0.3455752E+01    0.3769911E+01    0.4084071E+01    0.4398230E+01    0.4712389E+01    0.5026548E+01    0.5340708E+01
  0.5654867E+01    0.5969026E+01    0.6283185E+01    0.0000000E+00    0.3141593E+00    0.6283185E+00    0.9424778E+00    0.1256637E+01    0.1570796E+01    0.1884956E+01
  0.2199115E+01    0.2513274E+01    0.2827433E+01    0.3141593E+01    0.3455752E+01    0.3769911E+01    0.4084071E+01    0.4398230E+01    0.4712389E+01    0.5026548E+01
  0.5340708E+01    0.5654867E+01    0.5969026E+01    0.6283185E+01    0.0000000E+00    0.3141593E+00    0.6283185E+00    0.9424778E+00    0.1256637E+01    0.1570796E+01
  0.1884956E+01    0.2199115E+01    0.2513274E+01    0.2827433E+01    0.3141593E+01    0.3455752E+01    0.3769911E+01    0.4084071E+01    0.4398230E+01    0.4712389E+01
  0.5026548E+01    0.5340708E+01    0.5654867E+01    0.5969026E+01    0.6283185E+01    0.0000000E+00    0.3141593E+00    0.6283185E+00    0.9424778E+00    0.1256637E+01
  0.1570796E+01    0.1884956E+01    0.2199115E+01    0.2513274E+01    0.2827433E+01    0.3141593E+01    0.3455752E+01    0.3769911E+01    0.4084071E+01    0.4398230E+01
  0.4712389E+01    0.5026548E+01    0.5340708E+01    0.5654867E+01    0.5969026E+01    0.6283185E+01    0.0000000E+00    0.3141593E+00    0.6283185E+00    0.9424778E+00
  0.1256637E+01    0.1570796E+01    0.1884956E+01    0.2199115E+01    0.2513274E+01    0.2827433E+01    0.3141593E+01    0.3455752E+01    0.3769911E+01    0.4084071E+01
  0.4398230E+01    0.4712389E+01    0.5026548E+01    0.5340708E+01    0.5654867E+01    0.5969026E+01    0.6283185E+01    0.0000000E+00    0.3141593E+00    0.6283185E+00
  0.9424778E+00    0.1256637E+01    0.1570796E+01    0.1884956E+01    0.2199115E+01    0.2513274E+01    0.2827433E+01    0.3141593E+01    0.3455752E+01    0.3769911E+01
  0.4084071E+01    0.4398230E+01    0.4712389E+01    0.5026548E+01    0.5340708E+01    0.5654867E+01    0.5969026E+01    0.6283185E+01    0.0000000E+00    0.3141593E+00
  0.6283185E+00    0.9424778E+00    0.1256637E+01    0.1570796E+01    0.1884956E+01    0.2199115E+01    0.2513274E+01    0.2827433E+01    0.3141593E+01    0.3455752E+01
  0.3769911E+01    0.4084071E+01    0.4398230E+01    0.4712389E+01    0.5026548E+01    0.5340708E+01    0.5654867E+01    0.5969026E+01    0.6283185E+01    0.0000000E+00
  0.3141593E+00    0.6283185E+00    0.9424778E+00    0.1256637E+01    0.1570796E+01    0.1884956E+01    0.2199115E+01    0.2513274E+01    0.2827433E+01    0.3141593E+01
  0.3455752E+01    0.3769911E+01    0.4084071E+01    0.4398230E+01    0.4712389E+01    0.5026548E+01    0.5340708E+01    0.5654867E+01    0.5969026E+01    0.6283185E+01
  0.0000000E+00    0.3141593E+00    0.6283185E+00    0.9424778E+00    0.1256637E+01    0.1570796E+01    0.1884956E+01    0.2199115E+01    0.2513274E+01    0.2827433E+01
  0.3141593E+01    0.3455752E+01    0.3769911E+01    0.4084071E+01    0.4398230E+01    0.4712389E+01    0.5026548E+01    0.5340708E+01    0.5654867E+01    0.5969026E+01
  0.6283185E+01    0.0000000E+00    0.3141593E+00    0.6283185E+00    0.9424778E+00    0.1256637E+01    0.1570796E+01    0.1884956E+01    0.2199115E+01    0.2513274E+01
  0.2827433E+01    0.3141593E+01    0.3455752E+01    0.3769911E+01    0.4084071E+01    0.4398230E+01    0.4712389E+01    0.5026548E+01    0.5340708E+01    0.5654867E+01
  0.5969026E+01    0.6283185E+01    0.0000000E+00    0.3141593E+00    0.6283185E+00    0.9424778E+00    0.1256637E+01    0.1570796E+01    0.1884956E+01    0.2199115E+01
  0.2513274E+01    0.2827433E+01    0.3141593E+01    0.3455752E+01    0.3769911E+01    0.4084071E+01    0.4398230E+01    0.4712389E+01    0.5026548E+01    0.5340708E+01
  0.5654867E+01    0.5969026E+01    0.6283185E+01    0.0000000E+00    0.3141593E+00    0.6283185E+00    0.9424778E+00    0.1256637E+01    0.1570796E+01    0.1884956E+01
  0.2199115E+01    0.2513274E+01    0.2827433E+01    0.3141593E+01    0.3455752E+01    0.3769911E+01    0.4084071E+01    0.4398230E+01    0.4712389E+01    0.5026548E+01
  0.5340708E+01    0.5654867E+01    0.5969026E+01    0.6283185E+01    0.0000000E+00    0.3141593E+00    0.6283185E+00    0.9424778E+00    0.1256637E+01    0.1570796E+01
  0.1884956E+01    0.2199115E+01    0.2513274E+01    0.2827433E+01    0.3141593E+01    0.3455752E+01    0.3769911E+01    0.4084071E+01    0.4398230E+01    0.4712389E+01
  0.5026548E+01    0.5340708E+01    0.5654867E+01    0.5969026E+01    0.6283185E+01    0.0000000E+00    0.3141593E+00    0.6283185E+00    0.9424778E+00    0.1256637E+01
  0.1570796E+01    0.1884956E+01    0.2199115E+01    0.2513274E+01    0.2827433E+01    0.3141593E+01    0.3455752E+01    0.3769911E+01    0.4084071E+01    0.4398230E+01
  0.4712389E+01    0.5026548E+01    0.5340708E+01    0.5654867E+01    0.5969026E+01    0.6283185E+01    0.0000000E+00    0.3141593E+00    0.6283185E+00    0.9424778E+00
  0.1256637E+01    0.1570796E+01    0.1884956E+01    0.2199115E+01    0.2513274E+01    0.2827433E+01    0.3141593E+01    0.3455752E+01    0.3769911E+01    0.4084071E+01
  0.4398230E+01    0.4712389E+01    0.5026548E+01    0.5340708E+01    0.5654867E+01    0.5969026E+01    0.6283185E+01    0.0000000E+00    0.3141593E+00    0.6283185E+00
  0.9424778E+00    0.1256637E+01    0.1570796E+01    0.1884956E+01    0.2199115E+01    0.2513274E+01    0.2827433E+01    0.3141593E+01    0.3455752E+01    0.3769911E+01
  0.4084071E+01    0.4398230E+01    0.4712389E+01    0.5026548E+01    0.5340708E+01    0.5654867E+01    0.5969026E+01    0.6283185E+01    0.0000000E+00    0.3141593E+00
  0.6283185E+00    0.9424778E+00    0.1256637E+01    0.1570796E+01    0.1884956E+01    0.2199115E+01    0.2513274E+01    0.2827433E+01    0.3141593E+01    0.3455752E+01
  0.3769911E+01    0.4084071E+01    0.4398230E+01    0.4712389E+01    0.5026548E+01    0.5340708E+01    0.5654867E+01    0.5969026E+01    0.6283185E+01    0.0000000E+00
  0.3141593E+00    0.6283185E+00    0.9424778E+00    0.1256637E+01    0.1570796E+01    0.1884956E+01    0.2199115E+01    0.2513274E+01    0.2827433E+01    0.3141593E+01
  0.3455752E+01    0.3769911E+01    0.4084071E+01    0.4398230E+01    0.4712389E+01    0.5026548E+01    0.5340708E+01    0.5654867E+01    0.5969026E+01    0.6283185E+01
  0.0000000E+00    0.3141593E+00    0.6283185E+00    0.9424778E+00    0.1256637E+01    0.1570796E+01    0.1884956E+01    0.2199115E+01    0.2513274E+01    0.2827433E+01
  0.3141593E+01    0.3455752E+01    0.3769911E+01    0.4084071E+01    0.4398230E+01    0.4712389E+01    0.5026548E+01    0.5340708E+01    0.5654867E+01    0.5969026E+01
  0.6283185E+01    0.0000000E+00    0.0000000E+00    0.0000000E+00    0.0000000E+00    0.0000000E+00    0.0000000E+00    0.0000000E+00    0.0000000E+00    0.0000000E+00
  0.0000000E+00    0.0000000E+00    0.0000000E+00    0.0000000E+00    0.0000000E+00    0.0000000E+00    0.0000000E+00    0.0000000E+00    0.0000000E+00    0.0000000E+00
  0.0000000E+00    0.0000000E+00    0.3141593E+00    0.3141593E+00    0.3141593E+00    0.3141593E+00    0.3141593E+00    0.3141593E+00    0.3141593E+00    0.3141593E+00
  0.3141593E+00    0.3141593E+00    0.3141593E+00    0.3141593E+00    0.3141593E+00    0.3141593E+00    0.3141593E+00    0.3141593E+00    0.3141593E+00    0.3141593E+00
  0.3141593E+00    0.3141593E+00    0.3141593E+00    0.6283185E+00    0.6283185E+00    0.6283185E+00    0.6283185E+00    0.6283185E+00    0.6283185E+00    0.6283185E+00
  0.6283185E+00    0.6283185E+00    0.6283185E+00    0.6283185E+00    0.6283185E+00    0.6283185E+00    0.6283185E+00    0.6283185E+00    0.6283185E+00    0.6283185E+00
  0.6283185E+00    0.6283185E+00    0.6283185E+00    0.6283185E+00    0.9424778E+00    0.9424778E+00    0.9424778E+00    0.9424778E+00    0.9424778E+00    0.9424778E+00
  0.9424778E+00    0.9424778E+00    0.9424778E+00    0.9424778E+00    0.9424778E+00    0.9424778E+00    0.9424778E+00    0.9424778E+00    0.9424778E+00    0.9424778E+00
  0.9424778E+00    0.9424778E+00    0.9424778E+00    0.9424778E+00    0.9424778E+00    0.1256637E+01    0.1256637E+01    0.1256637E+01    0.1256637E+01    0.1256637E+01
  0.1256637E+01    0.1256637E+01    0.1256637E+01    0.1256637E+01    0.1256637E+01    0.1256637E+01    0.1256637E+01    0.1256637E+01    0.1256637E+01    0.1256637E+01
  0.1256637E+01    0.1256637E+01    0.1256637E+01    0.1256637E+01    0.1256637E+01    0.1256637E+01    0.1570796E+01    0.1570796E+01    0.1570796E+01    0.1570796E+01
  0.1570796E+01    0.1570796E+01    0.1570796E+01    0.1570796E+01    0.1570796E+01    0.1570796E+01    0.1570796E+01    0.1570796E+01    0.1570796E+01    0.1570796E+01
  0.1570796E+01    0.1570796E+01    0.1570796E+01    0.1570796E+01    0.1570796E+01    0.1570796E+01    0.1570796E+01    0.1884956E+01    0.1884956E+01    0.1884956E+01
  0.1884956E+01    0.1884956E+01    0.1884956E+01    0.1884956E+01    0.1884956E+01    0.1884956E+01    0.1884956E+01    0.1884956E+01    0.1884956E+01    0.1884956E+01
  0.1884956E+01    0.1884956E+01    0.1884956E+01    0.1884956E+01    0.1884956E+01    0.1884956E+01    0.1884956E+01    0.1884956E+01    0.2199115E+01    0.2199115E+01
  0.2199115E+01    0.2199115E+01    0.2199115E+01    0.2199115E+01    0.2199115E+01    0.2199115E+01    0.2199115E+01    0.2199115E+01    0.2199115E+01    0.2199115E+01
  0.2199115E+01    0.2199115E+01    0.2199115E+01    0.2199115E+01    0.2199115E+01    0.2199115E+01    0.2199115E+01    0.2199115E+01    0.2199115E+01    0.2513274E+01
  0.2513274E+01    0.2513274E+01    0.2513274E+01    0.2513274E+01    0.2513274E+01    0.2513274E+01    0.2513274E+01    0.2513274E+01    0.2513274E+01    0.2513274E+01
  0.2513274E+01    0.2513274E+01    0.2513274E+01    0.2513274E+01    0.2513274E+01    0.2513274E+01    0.2513274E+01    0.2513274E+01    0.2513274E+01    0.2513274E+01
  0.2827433E+01    0.2827433E+01    0.2827433E+01    0.2827433E+01    0.2827433E+01    0.2827433E+01    0.2827433E+01    0.2827433E+01    0.2827433E+01    0.2827433E+01
  0.2827433E+01    0.2827433E+01    0.2827433E+01    0.2827433E+01    0.2827433E+01    0.2827433E+01    0.2827433E+01    0.2827433E+01    0.2827433E+01    0.2827433E+01
  0.2827433E+01    0.3141593E+01    0.3141593E+01    0.3141593E+01    0.3141593E+01    0.3141593E+01    0.3141593E+01    0.3141593E+01    0.3141593E+01    0.3141593E+01
  0.3141593E+01    0.3141593E+01    0.3141593E+01    0.3141593E+01    0.3141593E+01    0.3141593E+01    0.3141593E+01    0.3141593E+01    0.3141593E+01    0.3141593E+01
  0.3141593E+01    0.3141593E+01    0.3455752E+01    0.3455752E+01    0.3455752E+01    0.3455752E+01    0.3455752E+01    0.3455752E+01    0.3455752E+01    0.3455752E+01
  0.3455752E+01    0.3455752E+01    0.3455752E+01    0.3455752E+01    0.3455752E+01    0.3455752E+01    0.3455752E+01    0.3455752E+01    0.3455752E+01    0.3455752E+01
  0.3455752E+01    0.3455752E+01    0.3455752E+01    0.3769911E+01    0.3769911E+01    0.3769911E+01    0.3769911E+01    0.3769911E+01    0.3769911E+01    0.3769911E+01
  0.3769911E+01    0.3769911E+01    0.3769911E+01    0.3769911E+01    0.3769911E+01    0.3769911E+01    0.3769911E+01    0.3769911E+01    0.3769911E+01    0.3769911E+01
  0.3769911E+01    0.3769911E+01    0.3769911E+01    0.3769911E+01    0.4084071E+01    0.4084071E+01    0.4084071E+01    0.4084071E+01    0.4084071E+01    0.4084071E+01
  0.4084071E+01    0.4084071E+01    0.4084071E+01    0.4084071E+01    0.4084071E+01    0.4084071E+01    0.4084071E+01    0.4084071E+01    0.4084071E+01    0.4084071E+01
  0.4084071E+01    0.4084071E+01    0.4084071E+01    0.4084071E+01    0.4084071E+01    0.4398230E+01    0.4398230E+01    0.4398230E+01    0.4398230E+01    0.4398230E+01
  0.4398230E+01    0.4398230E+01    0.4398230E+01    0.4398230E+01    0.4398230E+01    0.4398230E+01    0.4398230E+01    0.4398230E+01    0.4398230E+01    0.4398230E+01
  0.4398230E+01    0.4398230E+01    0.4398230E+01    0.4398230E+01    0.4398230E+01    0.4398230E+01    0.4712389E+01    0.4712389E+01    0.4712389E+01    0.4712389E+01
  0.4712389E+01    0.4712389E+01    0.4712389E+01    0.4712389E+01    0.4712389E+01    0.4712389E+01    0.4712389E+01    0.4712389E+01    0.4712389E+01    0.4712389E+01
  0.4712389E+01    0.4712389E+01    0.4712389E+01    0.4712389E+01    0.4712389E+01    0.4712389E+01    0.4712389E+01    0.5026548E+01    0.5026548E+01    0.5026548E+01
  0.5026548E+01    0.5026548E+01    0.5026548E+01    0.5026548E+01    0.5026548E+01    0.5026548E+01    0.5026548E+01    0.5026548E+01    0.5026548E+01    0.5026548E+01
  0.5026548E+01    0.5026548E+01    0.5026548E+01    0.5026548E+01    0.5026548E+01    0.5026548E+01    0.5026548E+01    0.5026548E+01    0.5340708E+01    0.5340708E+01
  0.5340708E+01    0.5340708E+01    0.5340708E+01    0.5340708E+01    0.5340708E+01    0.5340708E+01    0.5340708E+01    0.5340708E+01    0.5340708E+01    0.5340708E+01
  0.5340708E+01    0.5340708E+01    0.5340708E+01    0.5340708E+01    0.5340708E+01    0.5340708E+01    0.5340708E+01    0.5340708E+01    0.5340708E+01    0.5654867E+01
  0.5654867E+01    0.5654867E+01    0.5654867E+01    0.5654867E+01    0.5654867E+01    0.5654867E+01    0.5654867E+01    0.5654867E+01    0.5654867E+01    0.5654867E+01
  0.5654867E+01    0.5654867E+01    0.5654867E+01    0.5654867E+01    0.5654867E+01    0.5654867E+01    0.5654867E+01    0.5654867E+01    0.5654867E+01    0.5654867E+01
  0.5969026E+01    0.5969026E+01    0.5969026E+01    0.5969026E+01    0.5969026E+01    0.5969026E+01    0.5969026E+01    0.5969026E+01    0.5969026E+01    0.5969026E+01
  0.5969026E+01    0.5969026E+01    0.5969026E+01    0.5969026E+01    0.5969026E+01    0.5969026E+01    0.5969026E+01    0.5969026E+01    0.5969026E+01    0.5969026E+01
  0.5969026E+01    0.6283185E+01    0.6283185E+01    0.6283185E+01    0.6283185E+01    0.6283185E+01    0.6283185E+01    0.6283185E+01    0.6283185E+01    0.6283185E+01
  0.6283185E+01    0.6283185E+01    0.6283185E+01    0.6283185E+01    0.6283185E+01    0.6283185E+01    0.6283185E+01    0.6283185E+01    0.6283185E+01    0.6283185E+01
  0.6283185E+01    0.6283185E+01   -0.8414939E-01   -0.7590768E-01   -0.6023301E-01   -0.3865950E-01   -0.1329865E-01    0.1336937E-01    0.3873756E-01    0.6032654E-01
  0.7601928E-01    0.8417038E-01    0.8407998E-01    0.7586043E-01    0.6020894E-01    0.3864982E-01    0.1330058E-01   -0.1335437E-01   -0.3870840E-01   -0.6027495E-01
 -0.7594196E-01   -0.8418090E-01   -0.2442379E+00   -0.2203252E+00   -0.1748425E+00   -0.1122413E+00   -0.3864805E-01    0.3873544E-01    0.1123362E+00    0.1749476E+00
  0.2204244E+00    0.2442674E+00    0.2441976E+00    0.2202802E+00    0.1748122E+00    0.1122273E+00    0.3865052E-01   -0.3871508E-01   -0.1122964E+00   -0.1748882E+00
 -0.2203627E+00   -0.2442699E+00   -0.3804176E+00   -0.3431752E+00   -0.2723369E+00   -0.1748360E+00   -0.6021576E-01    0.6030524E-01    0.1749293E+00    0.2724314E+00
  0.3432546E+00    0.3804502E+00    0.3804030E+00    0.3431457E+00    0.2723118E+00    0.1748231E+00    0.6021806E-01   -0.6028605E-01   -0.1748934E+00   -0.2723841E+00
 -0.3432142E+00   -0.3804507E+00   -0.4793606E+00   -0.4324327E+00   -0.3431724E+00   -0.2203163E+00   -0.7588972E-01    0.7597024E-01    0.2203972E+00    0.3432493E+00
  0.4324938E+00    0.4793899E+00    0.4793589E+00    0.4324169E+00    0.3431558E+00    0.2203067E+00    0.7589115E-01   -0.7595618E-01   -0.2203718E+00   -0.3432187E+00
 -0.4324715E+00   -0.4793937E+00   -0.5313795E+00   -0.4793595E+00   -0.3804145E+00   -0.2442291E+00   -0.8413362E-01    0.8420064E-01    0.2442946E+00    0.3804741E+00
  0.4794055E+00    0.5314034E+00    0.5313831E+00    0.4793528E+00    0.3804051E+00    0.2442228E+00    0.8413394E-01   -0.8419248E-01   -0.2442800E+00   -0.3804578E+00
 -0.4793959E+00   -0.5314092E+00   -0.5313791E+00   -0.4793607E+00   -0.3804169E+00   -0.2442328E+00   -0.8413908E-01    0.8419277E-01    0.2442842E+00    0.3804626E+00
  0.4793962E+00    0.5314003E+00    0.5313869E+00    0.4793600E+00    0.3804126E+00    0.2442290E+00    0.8413849E-01   -0.8418934E-01   -0.2442779E+00   -0.3804566E+00
 -0.4793950E+00   -0.5314085E+00   -0.4793638E+00   -0.4324374E+00   -0.3431793E+00   -0.2203266E+00   -0.7590516E-01    0.7594781E-01    0.2203671E+00    0.3432148E+00
  0.4324650E+00    0.4793813E+00    0.4793721E+00    0.4324397E+00    0.3431783E+00    0.2203247E+00    0.7590412E-01   -0.7594746E-01   -0.2203662E+00   -0.3432153E+00
 -0.4324698E+00   -0.4793933E+00   -0.3804242E+00   -0.3431825E+00   -0.2723468E+00   -0.1748508E+00   -0.6023796E-01    0.6027237E-01    0.1748832E+00    0.2723751E+00
  0.3432045E+00    0.3804381E+00    0.3804316E+00    0.3431863E+00    0.2723479E+00    0.1748504E+00    0.6023699E-01   -0.6027365E-01   -0.1748853E+00   -0.2723792E+00
 -0.3432120E+00   -0.3804499E+00   -0.2442412E+00   -0.2203316E+00   -0.1748529E+00   -0.1122570E+00   -0.3867152E-01    0.3870012E-01    0.1122839E+00    0.1748767E+00
  0.2203510E+00    0.2442558E+00    0.2442509E+00    0.2203373E+00    0.1748557E+00    0.1122578E+00    0.3867096E-01   -0.3870192E-01   -0.1122874E+00   -0.1748823E+00
 -0.2203595E+00   -0.2442672E+00   -0.8415117E-01   -0.7591238E-01   -0.6024146E-01   -0.3867263E-01   -0.1331743E-01    0.1334208E-01    0.3869596E-01    0.6026214E-01
  0.7592955E-01    0.8416443E-01    0.8416065E-01    0.7591879E-01    0.6024542E-01    0.3867450E-01    0.1331752E-01   -0.1334376E-01   -0.3869984E-01   -0.6026860E-01
 -0.7593914E-01   -0.8417815E-01    0.8417634E-01    0.7593887E-01    0.6026835E-01    0.3869897E-01    0.1334216E-01   -0.1332009E-01   -0.3867810E-01   -0.6024975E-01
 -0.7592353E-01   -0.8416532E-01   -0.8416833E-01   -0.7593230E-01   -0.6026365E-01   -0.3869620E-01   -0.1334130E-01    0.1331880E-01    0.3867440E-01    0.6024340E-01
  0.7591430E-01    0.8415336E-01    0.2442696E+00    0.2203594E+00    0.1748805E+00    0.1122841E+00    0.3869733E-01   -0.3867690E-01   -0.1122647E+00   -0.1748630E+00
 -0.2203442E+00   -0.2442563E+00   -0.2442588E+00   -0.2203516E+00   -0.1748749E+00   -0.1122805E+00   -0.3869581E-01    0.3867615E-01    0.1122614E+00    0.1748569E+00
  0.2203355E+00    0.2442457E+00    0.3804501E+00    0.3432100E+00    0.2723753E+00    0.1748795E+00    0.6026588E-01   -0.6024646E-01   -0.1748611E+00   -0.2723587E+00
 -0.3431956E+00   -0.3804379E+00   -0.3804402E+00   -0.3432021E+00   -0.2723692E+00   -0.1748754E+00   -0.6026380E-01    0.6024615E-01    0.1748579E+00    0.2723525E+00
  0.3431861E+00    0.3804242E+00    0.4793891E+00    0.4324656E+00    0.3432093E+00    0.2203578E+00    0.7593649E-01   -0.7591759E-01   -0.2203400E+00   -0.3431936E+00
 -0.4324527E+00   -0.4793799E+00   -0.4793819E+00   -0.4324585E+00   -0.3432033E+00   -0.2203533E+00   -0.7593402E-01    0.7591741E-01    0.2203368E+00    0.3431873E+00
  0.4324432E+00    0.4793680E+00    0.5314092E+00    0.4793916E+00    0.3804495E+00    0.2442674E+00    0.8417520E-01   -0.8415637E-01   -0.2442498E+00   -0.3804341E+00
 -0.4793784E+00   -0.5313973E+00   -0.5313990E+00   -0.4793837E+00   -0.3804431E+00   -0.2442626E+00   -0.8417264E-01    0.8415614E-01    0.2442463E+00    0.3804271E+00
  0.4793686E+00    0.5313861E+00    0.5314076E+00    0.4793911E+00    0.3804496E+00    0.2442678E+00    0.8417553E-01   -0.8415622E-01   -0.2442501E+00   -0.3804349E+00
 -0.4793795E+00   -0.5313984E+00   -0.5314000E+00   -0.4793843E+00   -0.3804435E+00   -0.2442631E+00   -0.8417304E-01    0.8415562E-01    0.2442455E+00    0.3804262E+00
  0.4793668E+00    0.5313813E+00    0.4793875E+00    0.4324653E+00    0.3432101E+00    0.2203591E+00    0.7593784E-01   -0.7591685E-01   -0.2203405E+00   -0.3431956E+00
 -0.4324558E+00   -0.4793834E+00   -0.4793848E+00   -0.4324605E+00   -0.3432048E+00   -0.2203546E+00   -0.7593551E-01    0.7591567E-01    0.2203350E+00    0.3431854E+00
  0.4324416E+00    0.4793672E+00    0.3804509E+00    0.3432109E+00    0.2723772E+00    0.1748823E+00    0.6026907E-01   -0.6024401E-01   -0.1748603E+00   -0.2723604E+00
 -0.3431997E+00   -0.3804435E+00   -0.3804456E+00   -0.3432065E+00   -0.2723726E+00   -0.1748781E+00   -0.6026696E-01    0.6024286E-01    0.1748548E+00    0.2723494E+00
  0.3431844E+00    0.3804268E+00    0.2442678E+00    0.2203603E+00    0.1748837E+00    0.1122893E+00    0.3870378E-01   -0.3867033E-01   -0.1122592E+00   -0.1748596E+00
 -0.2203446E+00   -0.2442631E+00   -0.2442696E+00   -0.2203612E+00   -0.1748823E+00   -0.1122866E+00   -0.3870171E-01    0.3867068E-01    0.1122564E+00    0.1748514E+00
  0.2203296E+00    0.2442382E+00    0.8417310E-01    0.7594048E-01    0.6027350E-01    0.3870758E-01    0.1335415E-01   -0.1330540E-01   -0.3866028E-01   -0.6022891E-01
 -0.7590494E-01   -0.8417007E-01   -0.8419387E-01   -0.7595603E-01   -0.6028097E-01   -0.3870846E-01   -0.1335212E-01    0.1331040E-01    0.3866836E-01    0.6023652E-01
  0.7590870E-01    0.8415056E-01    0.8417986E-01    0.2442722E+00    0.3804568E+00    0.4794015E+00    0.5314211E+00    0.5314234E+00    0.4793984E+00    0.3804208E+00
  0.2441384E+00    0.8377474E-01   -0.8430578E-01   -0.2442964E+00   -0.3804398E+00   -0.4793689E+00   -0.5313761E+00   -0.5313764E+00   -0.4793632E+00   -0.3804161E+00
 -0.2442371E+00   -0.8415241E-01    0.7593828E-01    0.2203593E+00    0.3432124E+00    0.4324711E+00    0.4793974E+00    0.4793956E+00    0.4324573E+00    0.3431617E+00
  0.2202281E+00    0.7569090E-01   -0.7606174E-01   -0.2204033E+00   -0.3432133E+00   -0.4324515E+00   -0.4793672E+00   -0.4793648E+00   -0.4324398E+00   -0.3431810E+00
 -0.2203307E+00   -0.7591298E-01    0.6026499E-01    0.1748775E+00    0.2723733E+00    0.3432082E+00    0.3804469E+00    0.3804416E+00    0.3431864E+00    0.2723190E+00
  0.1747707E+00    0.6010958E-01   -0.6036339E-01   -0.1749268E+00   -0.2723879E+00   -0.3432033E+00   -0.3804333E+00   -0.3804289E+00   -0.3431871E+00   -0.2723511E+00
 -0.1748558E+00   -0.6024438E-01    0.3869360E-01    0.1122786E+00    0.1748737E+00    0.2203509E+00    0.2442573E+00    0.2442503E+00    0.2203268E+00    0.1748244E+00
  0.1121978E+00    0.3859082E-01   -0.3876655E-01   -0.1123241E+00   -0.1748956E+00   -0.2203580E+00   -0.2442579E+00   -0.2442527E+00   -0.2203404E+00   -0.1748601E+00
 -0.1122636E+00   -0.3867809E-01    0.1333457E-01    0.3868970E-01    0.6025737E-01    0.7592579E-01    0.8416027E-01    0.8415318E-01    0.7590314E-01    0.6021635E-01
  0.3863008E-01    0.1326451E-01   -0.1338911E-01   -0.3872894E-01   -0.6028188E-01   -0.7594042E-01   -0.8417089E-01   -0.8416590E-01   -0.7592419E-01   -0.6025145E-01
 -0.3868139E-01   -0.1332505E-01   -0.1332865E-01   -0.3868539E-01   -0.6025624E-01   -0.7593001E-01   -0.8417309E-01   -0.8417950E-01   -0.7594950E-01   -0.6028897E-01
 -0.3872946E-01   -0.1337788E-01    0.1328697E-01    0.3865238E-01    0.6023193E-01    0.7591159E-01    0.8415662E-01    0.8416091E-01    0.7592504E-01    0.6025592E-01
  0.3868789E-01    0.1333234E-01   -0.3868601E-01   -0.1122728E+00   -0.1748707E+00   -0.2203523E+00   -0.2442660E+00   -0.2442714E+00   -0.2203683E+00   -0.1748963E+00
 -0.1123058E+00   -0.3872184E-01    0.3865351E-01    0.1122452E+00    0.1748479E+00    0.2203326E+00    0.2442469E+00    0.2442502E+00    0.2203429E+00    0.1748659E+00
  0.1122711E+00    0.3868595E-01   -0.6025698E-01   -0.1748700E+00   -0.2723671E+00   -0.3432045E+00   -0.3804481E+00   -0.3804525E+00   -0.3432173E+00   -0.2723870E+00
 -0.1748947E+00   -0.6028277E-01    0.6023004E-01    0.1748465E+00    0.2723464E+00    0.3431851E+00    0.3804285E+00    0.3804309E+00    0.3431926E+00    0.2723593E+00
  0.1748649E+00    0.6025343E-01   -0.7592891E-01   -0.2203494E+00   -0.3432022E+00   -0.4324613E+00   -0.4793895E+00   -0.4793930E+00   -0.4324714E+00   -0.3432175E+00
 -0.2203679E+00   -0.7594770E-01    0.7590634E-01    0.2203293E+00    0.3431837E+00    0.4324433E+00    0.4793706E+00    0.4793723E+00    0.4324484E+00    0.3431924E+00
  0.2203418E+00    0.7592227E-01   -0.8416759E-01   -0.2442590E+00   -0.3804421E+00   -0.4793860E+00   -0.5314054E+00   -0.5314081E+00   -0.4793938E+00   -0.3804539E+00
 -0.2442732E+00   -0.8418189E-01    0.8414907E-01    0.2442422E+00    0.3804260E+00    0.4793697E+00    0.5313881E+00    0.5313891E+00    0.4793730E+00    0.3804316E+00
  0.2442505E+00    0.8416018E-01   -0.8416856E-01   -0.2442595E+00   -0.3804421E+00   -0.4793856E+00   -0.5314044E+00   -0.5314064E+00   -0.4793915E+00   -0.3804509E+00
 -0.2442698E+00   -0.8417843E-01    0.8415231E-01    0.2442448E+00    0.3804280E+00    0.4793711E+00    0.5313889E+00    0.5313894E+00    0.4793730E+00    0.3804315E+00
  0.2442502E+00    0.8416026E-01   -0.7593021E-01   -0.2203501E+00   -0.3432019E+00   -0.4324598E+00   -0.4793864E+00   -0.4793879E+00   -0.4324641E+00   -0.3432083E+00
 -0.2203574E+00   -0.7593683E-01    0.7591636E-01    0.2203376E+00    0.3431899E+00    0.4324475E+00    0.4793730E+00    0.4793733E+00    0.4324484E+00    0.3431917E+00
  0.2203406E+00    0.7592074E-01   -0.6025867E-01   -0.1748713E+00   -0.2723671E+00   -0.3432024E+00   -0.3804433E+00   -0.3804443E+00   -0.3432052E+00   -0.2723713E+00
 -0.1748762E+00   -0.6026346E-01    0.6024775E-01    0.1748610E+00    0.2723570E+00    0.3431920E+00    0.3804323E+00    0.3804324E+00    0.3431923E+00    0.2723577E+00
  0.1748625E+00    0.6025030E-01   -0.3869051E-01   -0.1122759E+00   -0.1748717E+00   -0.2203505E+00   -0.2442604E+00   -0.2442608E+00   -0.2203517E+00   -0.1748735E+00
 -0.1122780E+00   -0.3869228E-01    0.3868062E-01    0.1122668E+00    0.1748630E+00    0.2203420E+00    0.2442516E+00    0.2442515E+00    0.2203419E+00    0.1748632E+00
  0.1122674E+00    0.3868232E-01   -0.1333476E-01   -0.3869023E-01   -0.6025896E-01   -0.7592947E-01   -0.8416780E-01   -0.8416761E-01   -0.7592891E-01   -0.6025831E-01
 -0.3868977E-01   -0.1333426E-01    0.1332638E-01    0.3868239E-01    0.6025178E-01    0.7592289E-01    0.8416153E-01    0.8416145E-01    0.7592256E-01    0.6025130E-01
  0.3868196E-01    0.1332565E-01    0.1332676E-01    0.3868244E-01    0.6025196E-01    0.7592372E-01    0.8416347E-01    0.8416451E-01    0.7592644E-01    0.6025540E-01
  0.3868550E-01    0.1332845E-01   -0.1333314E-01   -0.3868911E-01   -0.6025787E-01   -0.7592850E-01   -0.8416702E-01   -0.8416721E-01   -0.7592901E-01   -0.6025854E-01
 -0.3869000E-01   -0.1333461E-01    0.3868075E-01    0.1122669E+00    0.1748640E+00    0.2203444E+00    0.2442561E+00    0.2442583E+00    0.2203501E+00    0.1748715E+00
  0.1122742E+00    0.3868615E-01   -0.3868805E-01   -0.1122740E+00   -0.1748696E+00   -0.2203475E+00   -0.2442568E+00   -0.2442573E+00   -0.2203482E+00   -0.1748702E+00
 -0.1122752E+00   -0.3868969E-01    0.6024849E-01    0.1748615E+00    0.2723586E+00    0.3431958E+00    0.3804393E+00    0.3804429E+00    0.3432055E+00    0.2723714E+00
  0.1748740E+00    0.6025792E-01   -0.6025614E-01   -0.1748693E+00   -0.2723640E+00   -0.3431975E+00   -0.3804372E+00   -0.3804380E+00   -0.3431986E+00   -0.2723649E+00
 -0.1748716E+00   -0.6026097E-01    0.7591886E-01    0.2203387E+00    0.3431919E+00    0.4324519E+00    0.4793820E+00    0.4793875E+00    0.4324663E+00    0.3432111E+00
  0.2203586E+00    0.7593569E-01   -0.7592542E-01   -0.2203474E+00   -0.3431985E+00   -0.4324533E+00   -0.4793774E+00   -0.4793797E+00   -0.4324547E+00   -0.3431984E+00
 -0.2203511E+00   -0.7593260E-01    0.8415274E-01    0.2442447E+00    0.3804293E+00    0.4793746E+00    0.5313981E+00    0.5314050E+00    0.4793923E+00    0.3804540E+00
  0.2442768E+00    0.8420098E-01   -0.8416055E-01   -0.2442583E+00   -0.3804417E+00   -0.4793784E+00   -0.5313932E+00   -0.5313989E+00   -0.4793792E+00   -0.3804367E+00
 -0.2442635E+00   -0.8417085E-01   -0.5098619E-01   -0.3836438E-01   -0.1793618E-01    0.2497550E-02    0.1508928E-01    0.1504338E-01    0.2364123E-02   -0.1817988E-01
 -0.3880334E-01   -0.5205071E-01   -0.5148558E-01   -0.3870713E-01   -0.1818009E-01    0.2271708E-02    0.1494142E-01    0.1501934E-01    0.2381853E-02   -0.1803321E-01
 -0.3835448E-01   -0.5095538E-01   -0.3837949E-01   -0.2577287E-01   -0.5354293E-02    0.1507183E-01    0.2766689E-01    0.2761573E-01    0.1492109E-01   -0.5625953E-02
 -0.2620779E-01   -0.3899609E-01   -0.3887040E-01   -0.2614780E-01   -0.5603590E-02    0.1487787E-01    0.2753440E-01    0.2762130E-01    0.1500930E-01   -0.5428931E-02
 -0.2575145E-01   -0.3833111E-01   -0.1795502E-01   -0.5361914E-02    0.1504463E-01    0.3546709E-01    0.4807053E-01    0.4801310E-01    0.3532138E-01    0.1479827E-01
 -0.5744809E-02   -0.1842294E-01   -0.1838804E-01   -0.5721034E-02    0.1480950E-01    0.3530823E-01    0.4795293E-01    0.4803605E-01    0.3544971E-01    0.1499356E-01
 -0.5343007E-02   -0.1789169E-01    0.2478893E-02    0.1506863E-01    0.3547300E-01    0.5589983E-01    0.6849555E-01    0.6843960E-01    0.5576288E-01    0.3524357E-01
  0.1472566E-01    0.2087150E-02    0.2086728E-02    0.1472989E-01    0.3525776E-01    0.5574094E-01    0.6838345E-01    0.6847878E-01    0.5587687E-01    0.3541793E-01