 TITLE = "NAVIER-STOKES OUTPUT"
 VARIABLES = "X", "Y", "U", "V", "P", "Pex", "Vor"
 ZONE I =   21, J =   21, DATAPACKING = BLOCK, VARLOCATION=(3=CELLCENTERED, 4=CELLCENTERED,5=CELLCENTERED,6=CELLCENTERED, 7=CELLCENTERED)
  0.0000000E+00    0.3141593E+00    0.6283185E+00    0.9424778E+00    0.1256637E+01    0.1570796E+01    0.1884956E+01    0.2199115E+01    0.2513274E+01    0.2827433E+01
  0.3141593E+01    0.3455752E+01    0.3769911E+01    0.4084071E+01    0.4398230E+01    0.4712389E+01    0.5026548E+01    0.5340708E+01    0.5654867E+01    0.5969026E+01
  0.6283185E+01    0.0000000E+00    0.3141593E+00    0.6283185E+00    0.9424778E+00    0.1256637E+01    0.1570796E+01    0.1884956E+01    0.2199115E+01    0.2513274E+01
  0.2827433E+01    0.3141593E+01    0.3455752E+01    0.3769911E+01    0.4084071E+01    0.4398230E+01    0.4712389E+01    0.5026548E+01    0.5340708E+01    0.5654867E+01
  0.5969026E+01    0.6283185E+01    0.0000000E+00    0.3141593E+00    0.6283185E+00    0.9424778E+00    0.1256637E+01    0.1570796E+01    0.1884956E+01    0.2199115E+01
  0.2513274E+01    0.2827433E+01    0.3141593E+01    0.3455752E+01    0.3769911E+01    0.4084071E+01    0.4398230E+01    0.4712389E+01    0.5026548E+01    0.5340708E+01
  0.5654867E+01    0.5969026E+01    0.6283185E+01    0.0000000E+00    0.3141593E+00    0.6283185E+00    0.9424778E+00    0.1256637E+01    0.1570796E+01    0.1884956E+01
  0.2199115E+01    0.2513274E+01    0.2827433E+01    0.3141593E+01    0.3455752E+01    0.3769911E+01    0.4084071E+01    0.4398230E+01    0.4712389E+01    0.5026548E+01
  0.5340708E+01    0.5654867E+01    0.5969026E+01    0.6283185E+01    0.0000000E+00    0.3141593E+00    0.6283185E+00    0.9424778E+00    0.1256637E+01    0.1570796E+01
  0.1884956E+01    0.2199115E+01    0.2513274E+01    0.2827433E+01    0.3141593E+01    0.3455752E+01    0.3769911E+01    0.4084071E+01    0.4398230E+01    0.4712389E+01
  0.5026548E+01    0.5340708E+01    0.5654867E+01    0.5969026E+01    0.6283185E+01    0.0000000E+00    0.3141593E+00    0.6283185E+00    0.9424778E+00    0.1256637E+01
  0.1570796E+01    0.1884956E+01    0.2199115E+01    0.2513274E+01    0.2827433E+01    0.3141593E+01    0.3455752E+01    0.3769911E+01    0.4084071E+01    0.4398230E+01
  0.4712389E+01    0.5026548E+01    0.5340708E+01    0.5654867E+01    0.5969026E+01    0.6283185E+01    0.0000000E+00    0.3141593E+00    0.6283185E+00    0.9424778E+00
  0.1256637E+01    0.1570796E+01    0.1884956E+01    0.2199115E+01    0.2513274E+01    0.2827433E+01    0.3141593E+01    0.3455752E+01    0.3769911E+01    0.4084071E+01
  0.4398230E+01    0.4712389E+01    0.5026548E+01    0.5340708E+01    0.5654867E+01    0.5969026E+01    0.6283185E+01    0.0000000E+00    0.3141593E+00    0.6283185E+00
  0.9424778E+00    0.1256637E+01    0.1570796E+01    0.1884956E+01    0.2199115E+01    0.2513274E+01    0.2827433E+01    0.3141593E+01    0.3455752E+01    0.3769911E+01
  0.4084071E+01    0.4398230E+01    0.4712389E+01    0.5026548E+01    0.5340708E+01    0.5654867E+01    0.5969026E+01    0.6283185E+01    0.0000000E+00    0.3141593E+00
  0.6283185E+00    0.9424778E+00    0.1256637E+01    0.1570796E+01    0.1884956E+01    0.2199115E+01    0.2513274E+01    0.2827433E+01    0.3141593E+01    0.3455752E+01
  0.3769911E+01    0.4084071E+01    0.4398230E+01    0.4712389E+01    0.5026548E+01    0.5340708E+01    0.5654867E+01    0.5969026E+01    0.6283185E+01    0.0000000E+00
  0.3141593E+00    0.6283185E+00    0.9424778E+00    0.1256637E+01    0.1570796E+01    0.1884956E+01    0.2199115E+01    0.2513274E+01    0.2827433E+01    0.3141593E+01
  0.3455752E+01    0.3769911E+01    0.4084071E+01    0.4398230E+01    0.4712389E+01    0.5026548E+01    0.5340708E+01    0.5654867E+01    0.5969026E+01    0.6283185E+01
  0.0000000E+00    0.3141593E+00    0.6283185E+00    0.9424778E+00    0.1256637E+01    0.1570796E+01    0.1884956E+01    0.2199115E+01    0.2513274E+01    0.2827433E+01
  0.3141593E+01    0.3455752E+01    0.3769911E+01    0.4084071E+01    0.4398230E+01    0.4712389E+01    0.5026548E+01    0.5340708E+01    0.5654867E+01    0.5969026E+01
  0.6283185E+01    0.0000000E+00    0.3141593E+00    0.6283185E+00    0.9424778E+00    0.1256637E+01    0.1570796E+01    0.1884956E+01    0.2199115E+01    0.2513274E+01
  0.2827433E+01    0.3141593E+01    0.3455752E+01    0.3769911E+01    0.4084071E+01    0.4398230E+01    0.4712389E+01    0.5026548E+01    0.5340708E+01    0.5654867E+01
  0.5969026E+01    0.6283185E+01    0.0000000E+00    0.3141593E+00    0.6283185E+00    0.9424778E+00    0.1256637E+01    0.1570796E+01    0.1884956E+01    0.2199115E+01
  0.2513274E+01    0.2827433E+01    0.3141593E+01    0.3455752E+01    0.3769911E+01    0.4084071E+01    0.4398230E+01    0.4712389E+01    0.5026548E+01    0.5340708E+01
  0.5654867E+01    0.5969026E+01    0.6283185E+01    0.0000000E+00    0.3141593E+00    0.6283185E+00    0.9424778E+00    0.1256637E+01    0.1570796E+01    0.1884956E+01
  0.2199115E+01    0.2513274E+01    0.2827433E+01    0.3141593E+01    0.3455752E+01    0.3769911E+01    0.4084071E+01    0.4398230E+01    0.4712389E+01    0.5026548E+01
  0.5340708E+01    0.5654867E+01    0.5969026E+01    0.6283185E+01    0.0000000E+00    0.3141593E+00    0.6283185E+00    0.9424778E+00    0.1256637E+01    0.1570796E+01
  0.1884956E+01    0.2199115E+01    0.2513274E+01    0.2827433E+01    0.3141593E+01    0.3455752E+01    0.3769911E+01    0.4084071E+01    0.4398230E+01    0.4712389E+01
  0.5026548E+01    0.5340708E+01    0.5654867E+01    0.5969026E+01    0.6283185E+01    0.0000000E+00    0.3141593E+00    0.6283185E+00    0.9424778E+00    0.1256637E+01
  0.1570796E+01    0.1884956E+01    0.2199115E+01    0.2513274E+01    0.2827433E+01    0.3141593E+01    0.3455752E+01    0.3769911E+01    0.4084071E+01    0.4398230E+01
  0.4712389E+01    0.5026548E+01    0.5340708E+01    0.5654867E+01    0.5969026E+01    0.6283185E+01    0.0000000E+00    0.3141593E+00    0.6283185E+00    0.9424778E+00
  0.1256637E+01    0.1570796E+01    0.1884956E+01    0.2199115E+01    0.2513274E+01    0.2827433E+01    0.3141593E+01    0.3455752E+01    0.3769911E+01    0.4084071E+01
  0.4398230E+01    0.4712389E+01    0.5026548E+01    0.5340708E+01    0.5654867E+01    0.5969026E+01    0.6283185E+01    0.0000000E+00    0.3141593E+00    0.6283185E+00
  0.9424778E+00    0.1256637E+01    0.1570796E+01    0.1884956E+01    0.2199115E+01    0.2513274E+01    0.2827433E+01    0.3141593E+01    0.3455752E+01    0.3769911E+01
  0.4084071E+01    0.4398230E+01    0.4712389E+01    0.5026548E+01    0.5340708E+01    0.5654867E+01    0.5969026E+01    0.6283185E+01    0.0000000E+00    0.3141593E+00
  0.6283185E+00    0.9424778E+00    0.1256637E+01    0.1570796E+01    0.1884956E+01    0.2199115E+01    0.2513274E+01    0.2827433E+01    0.3141593E+01    0.3455752E+01
  0.3769911E+01    0.4084071E+01    0.4398230E+01    0.4712389E+01    0.5026548E+01    0.5340708E+01    0.5654867E+01    0.5969026E+01    0.6283185E+01    0.0000000E+00
  0.3141593E+00    0.6283185E+00    0.9424778E+00    0.1256637E+01    0.1570796E+01    0.1884956E+01    0.2199115E+01    0.2513274E+01    0.2827433E+01    0.3141593E+01
  0.3455752E+01    0.3769911E+01    0.4084071E+01    0.4398230E+01    0.4712389E+01    0.5026548E+01    0.5340708E+01    0.5654867E+01    0.5969026E+01    0.6283185E+01
  0.0000000E+00    0.3141593E+00    0.6283185E+00    0.9424778E+00    0.1256637E+01    0.1570796E+01    0.1884956E+01    0.2199115E+01    0.2513274E+01    0.2827433E+01
  0.3141593E+01    0.3455752E+01    0.3769911E+01    0.4084071E+01    0.4398230E+01    0.4712389E+01    0.5026548E+01    0.5340708E+01    0.5654867E+01    0.5969026E+01
  0.6283185E+01    0.0000000E+00    0.0000000E+00    0.0000000E+00    0.0000000E+00    0.0000000E+00    0.0000000E+00    0.0000000E+00    0.0000000E+00    0.0000000E+00
  0.0000000E+00    0.0000000E+00    0.0000000E+00    0.0000000E+00    0.0000000E+00    0.0000000E+00    0.0000000E+00    0.0000000E+00    0.0000000E+00    0.0000000E+00
  0.0000000E+00    0.0000000E+00    0.3141593E+00    0.3141593E+00    0.3141593E+00    0.3141593E+00    0.3141593E+00    0.3141593E+00    0.3141593E+00    0.3141593E+00
  0.3141593E+00    0.3141593E+00    0.3141593E+00    0.3141593E+00    0.3141593E+00    0.3141593E+00    0.3141593E+00    0.3141593E+00    0.3141593E+00    0.3141593E+00
  0.3141593E+00    0.3141593E+00    0.3141593E+00    0.6283185E+00    0.6283185E+00    0.6283185E+00    0.6283185E+00    0.6283185E+00    0.6283185E+00    0.6283185E+00
  0.6283185E+00    0.6283185E+00    0.6283185E+00    0.6283185E+00    0.6283185E+00    0.6283185E+00    0.6283185E+00    0.6283185E+00    0.6283185E+00    0.6283185E+00
  0.6283185E+00    0.6283185E+00    0.6283185E+00    0.6283185E+00    0.9424778E+00    0.9424778E+00    0.9424778E+00    0.9424778E+00    0.9424778E+00    0.9424778E+00
  0.9424778E+00    0.9424778E+00    0.9424778E+00    0.9424778E+00    0.9424778E+00    0.9424778E+00    0.9424778E+00    0.9424778E+00    0.9424778E+00    0.9424778E+00
  0.9424778E+00    0.9424778E+00    0.9424778E+00    0.9424778E+00    0.9424778E+00    0.1256637E+01    0.1256637E+01    0.1256637E+01    0.1256637E+01    0.1256637E+01
  0.1256637E+01    0.1256637E+01    0.1256637E+01    0.1256637E+01    0.1256637E+01    0.1256637E+01    0.1256637E+01    0.1256637E+01    0.1256637E+01    0.1256637E+01
  0.1256637E+01    0.1256637E+01    0.1256637E+01    0.1256637E+01    0.1256637E+01    0.1256637E+01    0.1570796E+01    0.1570796E+01    0.1570796E+01    0.1570796E+01
  0.1570796E+01    0.1570796E+01    0.1570796E+01    0.1570796E+01    0.1570796E+01    0.1570796E+01    0.1570796E+01    0.1570796E+01    0.1570796E+01    0.1570796E+01
  0.1570796E+01    0.1570796E+01    0.1570796E+01    0.1570796E+01    0.1570796E+01    0.1570796E+01    0.1570796E+01    0.1884956E+01    0.1884956E+01    0.1884956E+01
  0.1884956E+01    0.1884956E+01    0.1884956E+01    0.1884956E+01    0.1884956E+01    0.1884956E+01    0.1884956E+01    0.1884956E+01    0.1884956E+01    0.1884956E+01
  0.1884956E+01    0.1884956E+01    0.1884956E+01    0.1884956E+01    0.1884956E+01    0.1884956E+01    0.1884956E+01    0.1884956E+01    0.2199115E+01    0.2199115E+01
  0.2199115E+01    0.2199115E+01    0.2199115E+01    0.2199115E+01    0.2199115E+01    0.2199115E+01    0.2199115E+01    0.2199115E+01    0.2199115E+01    0.2199115E+01
  0.2199115E+01    0.2199115E+01    0.2199115E+01    0.2199115E+01    0.2199115E+01    0.2199115E+01    0.2199115E+01    0.2199115E+01    0.2199115E+01    0.2513274E+01
  0.2513274E+01    0.2513274E+01    0.2513274E+01    0.2513274E+01    0.2513274E+01    0.2513274E+01    0.2513274E+01    0.2513274E+01    0.2513274E+01    0.2513274E+01
  0.2513274E+01    0.2513274E+01    0.2513274E+01    0.2513274E+01    0.2513274E+01    0.2513274E+01    0.2513274E+01    0.2513274E+01    0.2513274E+01    0.2513274E+01
  0.2827433E+01    0.2827433E+01    0.2827433E+01    0.2827433E+01    0.2827433E+01    0.2827433E+01    0.2827433E+01    0.2827433E+01    0.2827433E+01    0.2827433E+01
  0.2827433E+01    0.2827433E+01    0.2827433E+01    0.2827433E+01    0.2827433E+01    0.2827433E+01    0.2827433E+01    0.2827433E+01    0.2827433E+01    0.2827433E+01
  0.2827433E+01    0.3141593E+01    0.3141593E+01    0.3141593E+01    0.3141593E+01    0.3141593E+01    0.3141593E+01    0.3141593E+01    0.3141593E+01    0.3141593E+01
  0.3141593E+01    0.3141593E+01    0.3141593E+01    0.3141593E+01    0.3141593E+01    0.3141593E+01    0.3141593E+01    0.3141593E+01    0.3141593E+01    0.3141593E+01
  0.3141593E+01    0.3141593E+01    0.3455752E+01    0.3455752E+01    0.3455752E+01    0.3455752E+01    0.3455752E+01    0.3455752E+01    0.3455752E+01    0.3455752E+01
  0.3455752E+01    0.3455752E+01    0.3455752E+01    0.3455752E+01    0.3455752E+01    0.3455752E+01    0.3455752E+01    0.3455752E+01    0.3455752E+01    0.3455752E+01
  0.3455752E+01    0.3455752E+01    0.3455752E+01    0.3769911E+01    0.3769911E+01    0.3769911E+01    0.3769911E+01    0.3769911E+01    0.3769911E+01    0.3769911E+01
  0.3769911E+01    0.3769911E+01    0.3769911E+01    0.3769911E+01    0.3769911E+01    0.3769911E+01    0.3769911E+01    0.3769911E+01    0.3769911E+01    0.3769911E+01
  0.3769911E+01    0.3769911E+01    0.3769911E+01    0.3769911E+01    0.4084071E+01    0.4084071E+01    0.4084071E+01    0.4084071E+01    0.4084071E+01    0.4084071E+01
  0.4084071E+01    0.4084071E+01    0.4084071E+01    0.4084071E+01    0.4084071E+01    0.4084071E+01    0.4084071E+01    0.4084071E+01    0.4084071E+01    0.4084071E+01
  0.4084071E+01    0.4084071E+01    0.4084071E+01    0.4084071E+01    0.4084071E+01    0.4398230E+01    0.4398230E+01    0.4398230E+01    0.4398230E+01    0.4398230E+01
  0.4398230E+01    0.4398230E+01    0.4398230E+01    0.4398230E+01    0.4398230E+01    0.4398230E+01    0.4398230E+01    0.4398230E+01    0.4398230E+01    0.4398230E+01
  0.4398230E+01    0.4398230E+01    0.4398230E+01    0.4398230E+01    0.4398230E+01    0.4398230E+01    0.4712389E+01    0.4712389E+01    0.4712389E+01    0.4712389E+01
  0.4712389E+01    0.4712389E+01    0.4712389E+01    0.4712389E+01    0.4712389E+01    0.4712389E+01    0.4712389E+01    0.4712389E+01    0.4712389E+01    0.4712389E+01
  0.4712389E+01    0.4712389E+01    0.4712389E+01    0.4712389E+01    0.4712389E+01    0.4712389E+01    0.4712389E+01    0.5026548E+01    0.5026548E+01    0.5026548E+01
  0.5026548E+01    0.5026548E+01    0.5026548E+01    0.5026548E+01    0.5026548E+01    0.5026548E+01    0.5026548E+01    0.5026548E+01    0.5026548E+01    0.5026548E+01
  0.5026548E+01    0.5026548E+01    0.5026548E+01    0.5026548E+01    0.5026548E+01    0.5026548E+01    0.5026548E+01    0.5026548E+01    0.5340708E+01    0.5340708E+01
  0.5340708E+01    0.5340708E+01    0.5340708E+01    0.5340708E+01    0.5340708E+01    0.5340708E+01    0.5340708E+01    0.5340708E+01    0.5340708E+01    0.5340708E+01
  0.5340708E+01    0.5340708E+01    0.5340708E+01    0.5340708E+01    0.5340708E+01    0.5340708E+01    0.5340708E+01    0.5340708E+01    0.5340708E+01    0.5654867E+01
  0.5654867E+01    0.5654867E+01    0.5654867E+01    0.5654867E+01    0.5654867E+01    0.5654867E+01    0.5654867E+01    0.5654867E+01    0.5654867E+01    0.5654867E+01
  0.5654867E+01    0.5654867E+01    0.5654867E+01    0.5654867E+01    0.5654867E+01    0.5654867E+01    0.5654867E+01    0.5654867E+01    0.5654867E+01    0.5654867E+01
  0.5969026E+01    0.5969026E+01    0.5969026E+01    0.5969026E+01    0.5969026E+01    0.5969026E+01    0.5969026E+01    0.5969026E+01    0.5969026E+01    0.5969026E+01
  0.5969026E+01    0.5969026E+01    0.5969026E+01    0.5969026E+01    0.5969026E+01    0.5969026E+01    0.5969026E+01    0.5969026E+01    0.5969026E+01    0.5969026E+01
  0.5969026E+01    0.6283185E+01    0.6283185E+01    0.6283185E+01    0.6283185E+01    0.6283185E+01    0.6283185E+01    0.6283185E+01    0.6283185E+01    0.6283185E+01
  0.6283185E+01    0.6283185E+01    0.6283185E+01    0.6283185E+01    0.6283185E+01    0.6283185E+01    0.6283185E+01    0.6283185E+01    0.6283185E+01    0.6283185E+01
  0.6283185E+01    0.6283185E+01   -0.2889292E-02   -0.2606645E-02   -0.2068900E-02   -0.1328667E-02   -0.4584610E-03    0.4564468E-03    0.1326395E-02    0.2066046E-02
  0.2602985E-02    0.2888734E-02    0.2891796E-02    0.2608104E-02    0.2069567E-02    0.1329097E-02    0.4586240E-03   -0.4565308E-03   -0.1326659E-02   -0.2067084E-02
 -0.2605087E-02   -0.2887746E-02   -0.8382760E-02   -0.7562274E-02   -0.6001589E-02   -0.3853459E-02   -0.1328213E-02    0.1326883E-02    0.3851866E-02    0.5999563E-02
  0.7560173E-02    0.8382496E-02    0.8384363E-02    0.7563738E-02    0.6002549E-02    0.3854145E-02    0.1328580E-02   -0.1326807E-02   -0.3852057E-02   -0.6000328E-02
 -0.7561098E-02   -0.8381505E-02   -0.1305560E-01   -0.1177767E-01   -0.9346851E-02   -0.6001126E-02   -0.2068011E-02    0.2067434E-02    0.6000367E-02    0.9345913E-02
  0.1177685E-01    0.1305571E-01    0.1305669E-01    0.1177883E-01    0.9347737E-02    0.6001799E-02    0.2068404E-02   -0.2067337E-02   -0.6000466E-02   -0.9346273E-02
 -0.1177714E-01   -0.1305494E-01   -0.1645072E-01   -0.1484036E-01   -0.1177733E-01   -0.7561472E-02   -0.2605457E-02    0.2605517E-02    0.7561389E-02    0.1177716E-01
  0.1484021E-01    0.1645089E-01    0.1645136E-01    0.1484108E-01    0.1177790E-01    0.7561940E-02    0.2605677E-02   -0.2605560E-02   -0.7561518E-02   -0.1177743E-01
 -0.1484044E-01   -0.1645056E-01   -0.1823572E-01   -0.1645055E-01   -0.1305511E-01   -0.8381776E-02   -0.2887998E-02    0.2888415E-02    0.8382079E-02    0.1305528E-01
  0.1645057E-01    0.1823571E-01    0.1823585E-01    0.1645074E-01    0.1305525E-01    0.8381856E-02    0.2887873E-02   -0.2888715E-02   -0.8382430E-02   -0.1305574E-01
 -0.1645098E-01   -0.1823578E-01   -0.1823576E-01   -0.1645059E-01   -0.1305513E-01   -0.8381777E-02   -0.2887988E-02    0.2888441E-02    0.8382082E-02    0.1305525E-01
  0.1645046E-01    0.1823540E-01    0.1823537E-01    0.1645021E-01    0.1305471E-01    0.8381330E-02    0.2887442E-02   -0.2889119E-02   -0.8382797E-02   -0.1305600E-01
 -0.1645124E-01   -0.1823602E-01   -0.1645111E-01   -0.1484056E-01   -0.1177740E-01   -0.7561454E-02   -0.2605397E-02    0.2605576E-02    0.7561435E-02    0.1177714E-01
  0.1483991E-01    0.1645003E-01    0.1644994E-01    0.1483946E-01    0.1177632E-01    0.7560469E-02    0.2604379E-02   -0.2606684E-02   -0.7562501E-02   -0.1177825E-01
 -0.1484114E-01   -0.1645118E-01   -0.1305619E-01   -0.1177793E-01   -0.9346905E-02   -0.6001056E-02   -0.2067903E-02    0.2067535E-02    0.6000520E-02    0.9346064E-02
  0.1177663E-01    0.1305439E-01    0.1305426E-01    0.1177614E-01    0.9345258E-02    0.5999552E-02    0.2066416E-02   -0.2068995E-02   -0.6001918E-02   -0.9347494E-02
 -0.1177806E-01   -0.1305572E-01   -0.8383126E-02   -0.7562384E-02   -0.6001512E-02   -0.3853328E-02   -0.1328080E-02    0.1327032E-02    0.3852105E-02    0.6000028E-02
  0.7560525E-02    0.8380830E-02    0.8380712E-02    0.7560139E-02    0.5999409E-02    0.3851378E-02    0.1326262E-02   -0.1328795E-02   -0.3853792E-02   -0.6001626E-02
 -0.7562101E-02   -0.8382310E-02   -0.2889546E-02   -0.2606613E-02   -0.2068705E-02   -0.1328459E-02   -0.4582972E-03    0.4565296E-03    0.1326535E-02    0.2066632E-02
  0.2604254E-02    0.2886845E-02    0.2886837E-02    0.2604064E-02    0.2066295E-02    0.1326284E-02    0.4562537E-03   -0.4585129E-03   -0.1328331E-02   -0.2068320E-02
 -0.2605914E-02   -0.2888313E-02    0.2886900E-02    0.2604306E-02    0.2066583E-02    0.1326418E-02    0.4562552E-03   -0.4587375E-03   -0.1328927E-02   -0.2069163E-02
 -0.2607010E-02   -0.2889726E-02   -0.2889691E-02   -0.2606939E-02   -0.2069028E-02   -0.1328692E-02   -0.4584313E-03    0.4567157E-03    0.1327072E-02    0.2067416E-02
  0.2605451E-02    0.2888396E-02    0.8380792E-02    0.7560274E-02    0.5999535E-02    0.3851361E-02    0.1326070E-02   -0.1329150E-02   -0.3854420E-02   -0.6002491E-02
 -0.7563093E-02   -0.8383521E-02   -0.8383397E-02   -0.7562721E-02   -0.6001904E-02   -0.3853636E-02   -0.1328185E-02    0.1327131E-02    0.3852522E-02    0.6000810E-02
  0.7561558E-02    0.8382145E-02    0.1305423E-01    0.1177611E-01    0.9345105E-02    0.5999223E-02    0.2066023E-02   -0.2069568E-02   -0.6002684E-02   -0.9348260E-02
 -0.1177894E-01   -0.1305673E-01   -0.1305645E-01   -0.1177830E-01   -0.9347301E-02   -0.6001291E-02   -0.2068028E-02    0.2067601E-02    0.6000929E-02    0.9346652E-02
  0.1177741E-01    0.1305547E-01    0.1644975E-01    0.1483911E-01    0.1177580E-01    0.7559744E-02    0.2603603E-02   -0.2607495E-02   -0.7563408E-02   -0.1177908E-01
 -0.1484186E-01   -0.1645184E-01   -0.1645154E-01   -0.1484098E-01   -0.1177767E-01   -0.7561618E-02   -0.2605481E-02    0.2605744E-02    0.7561769E-02    0.1177751E-01
  0.1484047E-01    0.1645058E-01    0.1823475E-01    0.1644932E-01    0.1305363E-01    0.8380092E-02    0.2886200E-02   -0.2890263E-02   -0.8383914E-02   -0.1305695E-01
 -0.1645193E-01   -0.1823664E-01   -0.1823629E-01   -0.1645087E-01   -0.1305528E-01   -0.8381793E-02   -0.2887809E-02    0.2888676E-02    0.8382382E-02    0.1305561E-01
  0.1645063E-01    0.1823533E-01    0.1823464E-01    0.1644919E-01    0.1305351E-01    0.8380003E-02    0.2886187E-02   -0.2890239E-02   -0.8383806E-02   -0.1305672E-01
 -0.1645170E-01   -0.1823635E-01   -0.1823587E-01   -0.1645053E-01   -0.1305496E-01   -0.8381398E-02   -0.2887589E-02    0.2888843E-02    0.8382620E-02    0.1305560E-01
  0.1645053E-01    0.1823531E-01    0.1644946E-01    0.1483880E-01    0.1177551E-01    0.7559521E-02    0.2603509E-02   -0.2607409E-02   -0.7563105E-02   -0.1177856E-01
 -0.1484111E-01   -0.1645089E-01   -0.1645050E-01   -0.1483991E-01   -0.1177663E-01   -0.7560710E-02   -0.2604714E-02    0.2606377E-02    0.7562168E-02    0.1177767E-01
  0.1484042E-01    0.1645021E-01    0.1305411E-01    0.1177578E-01    0.9344742E-02    0.5998923E-02    0.2065855E-02   -0.2069450E-02   -0.6002245E-02   -0.9347526E-02
 -0.1177779E-01   -0.1305525E-01   -0.1305482E-01   -0.1177651E-01   -0.9345611E-02   -0.5999892E-02   -0.2066710E-02    0.2068630E-02    0.6001521E-02    0.9347085E-02
  0.1177745E-01    0.1305500E-01    0.8380668E-02    0.7559993E-02    0.5999160E-02    0.3851027E-02    0.1325925E-02   -0.1329060E-02   -0.3853990E-02   -0.6001639E-02
 -0.7561858E-02   -0.8381686E-02   -0.8380997E-02   -0.7560318E-02   -0.5999675E-02   -0.3851558E-02   -0.1326526E-02    0.1328450E-02    0.3853645E-02    0.6001376E-02
  0.7561667E-02    0.8381983E-02    0.2887146E-02    0.2604214E-02    0.2066309E-02    0.1326142E-02    0.4560944E-03   -0.4587339E-03   -0.1328689E-02   -0.2068704E-02
 -0.2606223E-02   -0.2887697E-02   -0.2886601E-02   -0.2603843E-02   -0.2066166E-02   -0.1326287E-02   -0.4563945E-03    0.4584895E-03    0.1328391E-02    0.2068307E-02
  0.2606079E-02    0.2888550E-02    0.2878172E-02    0.8371260E-02    0.1304350E-01    0.1643722E-01    0.1822021E-01    0.1821817E-01    0.1643110E-01    0.1303456E-01
  0.8362430E-02    0.2876689E-02   -0.2907903E-02   -0.8402893E-02   -0.1307531E-01   -0.1646879E-01   -0.1825192E-01   -0.1824996E-01   -0.1646319E-01   -0.1306639E-01
 -0.8392356E-02   -0.2898009E-02    0.2595548E-02    0.7550840E-02    0.1176552E-01    0.1482686E-01    0.1643519E-01    0.1643321E-01    0.1482115E-01    0.1175724E-01
  0.7542194E-02    0.2588883E-02   -0.2624870E-02   -0.7581717E-02   -0.1179680E-01   -0.1485818E-01   -0.1646664E-01   -0.1646475E-01   -0.1485272E-01   -0.1178838E-01
 -0.7571668E-02   -0.2615254E-02    0.2057792E-02    0.5990172E-02    0.9334672E-02    0.1176382E-01    0.1303986E-01    0.1303798E-01    0.1175844E-01    0.9326724E-02
  0.5981126E-02    0.2048765E-02   -0.2087488E-02   -0.6020701E-02   -0.9365591E-02   -0.1179491E-01   -0.1307106E-01   -0.1306925E-01   -0.1178964E-01   -0.9357515E-02
 -0.6010970E-02   -0.2077507E-02    0.1317596E-02    0.3842071E-02    0.5988912E-02    0.7547955E-02    0.8366616E-02    0.8364799E-02    0.7542768E-02    0.5981118E-02
  0.3832703E-02    0.1307588E-02   -0.1347621E-02   -0.3872495E-02   -0.6019621E-02   -0.7578814E-02   -0.8397597E-02   -0.8395844E-02   -0.7573729E-02   -0.6011821E-02
 -0.3862931E-02   -0.1337343E-02    0.4474111E-03    0.1316802E-02    0.2055761E-02    0.2591955E-02    0.2872900E-02    0.2871144E-02    0.2586925E-02    0.2048087E-02
  0.1307355E-02    0.4371359E-03   -0.4776111E-03   -0.1347180E-02   -0.2086279E-02   -0.2622605E-02   -0.2903678E-02   -0.2901953E-02   -0.2617715E-02   -0.2078766E-02
 -0.1337761E-02   -0.4673292E-03   -0.4676523E-03   -0.1338498E-02   -0.2079849E-02   -0.2619148E-02   -0.2903574E-02   -0.2905247E-02   -0.2624002E-02   -0.2087335E-02
 -0.1347781E-02   -0.4778302E-03    0.4373053E-03    0.1308121E-02    0.2049393E-02    0.2588579E-02    0.2872932E-02    0.2874555E-02    0.2593274E-02    0.2056678E-02
  0.1317239E-02    0.4473689E-03   -0.1337982E-02   -0.3863893E-02   -0.6013111E-02   -0.7575232E-02   -0.8397323E-02   -0.8398933E-02   -0.7579870E-02   -0.6020278E-02
 -0.3872876E-02   -0.1347873E-02    0.1307567E-02    0.3833461E-02    0.5982619E-02    0.7544703E-02    0.8366729E-02    0.8368276E-02    0.7549217E-02    0.5989635E-02
  0.3842269E-02    0.1317369E-02   -0.2078389E-02   -0.6012182E-02   -0.9358954E-02   -0.1179110E-01   -0.1307056E-01   -0.1307209E-01   -0.1179549E-01   -0.9365770E-02
 -0.6020752E-02   -0.2087839E-02    0.2047906E-02    0.5981671E-02    0.9328463E-02    0.1176058E-01    0.1303998E-01    0.1304152E-01    0.1176490E-01    0.9335154E-02
  0.5990213E-02    0.2057330E-02   -0.2616483E-02   -0.7573131E-02   -0.1178994E-01   -0.1485418E-01   -0.1646591E-01   -0.1646733E-01   -0.1485833E-01   -0.1179640E-01
 -0.7581223E-02   -0.2625462E-02    0.2585785E-02    0.7542454E-02    0.1175928E-01    0.1482351E-01    0.1643527E-01    0.1643669E-01    0.1482766E-01    0.1176578E-01
  0.7550621E-02    0.2594807E-02   -0.2899471E-02   -0.8393844E-02   -0.1306805E-01   -0.1646457E-01   -0.1825092E-01   -0.1825229E-01   -0.1646852E-01   -0.1307418E-01
 -0.8401585E-02   -0.2908089E-02    0.2868609E-02    0.8362956E-02    0.1303717E-01    0.1643377E-01    0.1822015E-01    0.1822151E-01    0.1643780E-01    0.1304346E-01
  0.8370844E-02    0.2877367E-02   -0.2899580E-02   -0.8393922E-02   -0.1306807E-01   -0.1646451E-01   -0.1825084E-01   -0.1825218E-01   -0.1646836E-01   -0.1307406E-01
 -0.8401492E-02   -0.2907986E-02    0.2868622E-02    0.8362913E-02    0.1303714E-01    0.1643363E-01    0.1821996E-01    0.1822137E-01    0.1643756E-01    0.1304321E-01
  0.8370700E-02    0.2877148E-02   -0.2616983E-02   -0.7573481E-02   -0.1179011E-01   -0.1485418E-01   -0.1646577E-01   -0.1646708E-01   -0.1485804E-01   -0.1179613E-01
 -0.7581002E-02   -0.2625349E-02    0.2585768E-02    0.7542319E-02    0.1175901E-01    0.1482311E-01    0.1643478E-01    0.1643610E-01    0.1482702E-01    0.1176515E-01
  0.7550002E-02    0.2594247E-02   -0.2079170E-02   -0.6012700E-02   -0.9359206E-02   -0.1179111E-01   -0.1307035E-01   -0.1307173E-01   -0.1179510E-01   -0.9365377E-02
 -0.6020475E-02   -0.2087770E-02    0.2047844E-02    0.5981416E-02    0.9327963E-02    0.1175997E-01    0.1303922E-01    0.1304057E-01    0.1176398E-01    0.9334212E-02
  0.5989225E-02    0.2056552E-02   -0.1338621E-02   -0.3864272E-02   -0.6013197E-02   -0.7575024E-02   -0.8396914E-02   -0.8398395E-02   -0.7579271E-02   -0.6019799E-02
 -0.3872591E-02   -0.1347759E-02    0.1307417E-02    0.3833083E-02    0.5982100E-02    0.7543924E-02    0.8365759E-02    0.8367268E-02    0.7548073E-02    0.5988492E-02
  0.3841320E-02    0.1316465E-02   -0.4681865E-03   -0.1338756E-02   -0.2079830E-02   -0.2618882E-02   -0.2903127E-02   -0.2904693E-02   -0.2623481E-02   -0.2086987E-02
 -0.1347669E-02   -0.4780108E-03    0.4369053E-03    0.1307604E-02    0.2048683E-02    0.2587678E-02    0.2871935E-02    0.2873407E-02    0.2592079E-02    0.2055615E-02
  0.1316258E-02    0.4465719E-03    0.4471042E-03    0.1316775E-02    0.2055944E-02    0.2592297E-02    0.2873382E-02    0.2871648E-02    0.2587295E-02    0.2048215E-02
  0.1307070E-02    0.4364607E-03   -0.4783200E-03   -0.1347915E-02   -0.2087117E-02   -0.2623465E-02   -0.2904686E-02   -0.2903102E-02   -0.2618737E-02   -0.2079727E-02
 -0.1338629E-02   -0.4678162E-03    0.1317811E-02    0.3842470E-02    0.5989413E-02    0.7548536E-02    0.8367203E-02    0.8365301E-02    0.7543085E-02    0.5980967E-02
  0.3831879E-02    0.1306267E-02   -0.1348810E-02   -0.3873418E-02   -0.6020320E-02   -0.7579606E-02   -0.8398497E-02   -0.8396664E-02   -0.7574595E-02   -0.6012570E-02
 -0.3863297E-02   -0.1337540E-02    0.2058298E-02    0.5990783E-02    0.9335273E-02    0.1176436E-01    0.1304031E-01    0.1303831E-01    0.1175849E-01    0.9326165E-02
  0.5979472E-02    0.2045876E-02   -0.2089420E-02   -0.6021673E-02   -0.9366209E-02   -0.1179552E-01   -0.1307164E-01   -0.1306989E-01   -0.1179025E-01   -0.9357823E-02
 -0.6011078E-02   -0.2077353E-02    0.2596324E-02    0.7551677E-02    0.1176617E-01    0.1482728E-01    0.1643550E-01    0.1643336E-01    0.1482104E-01    0.1175653E-01
  0.7539556E-02    0.2582911E-02   -0.2627498E-02   -0.7582555E-02   -0.1179708E-01   -0.1485836E-01   -0.1646698E-01   -0.1646516E-01   -0.1485287E-01   -0.1178843E-01
 -0.7571493E-02   -0.2614554E-02    0.2879495E-02    0.8372502E-02    0.1304436E-01    0.1643768E-01    0.1822055E-01    0.1821831E-01    0.1643119E-01    0.1303427E-01
  0.8359628E-02    0.2864343E-02   -0.2910555E-02   -0.8403056E-02   -0.1307474E-01   -0.1646855E-01   -0.1825192E-01   -0.1824987E-01   -0.1646309E-01   -0.1306616E-01
 -0.8391577E-02   -0.2897028E-02   -0.1320473E-02   -0.1296741E-02   -0.1267424E-02   -0.1234451E-02   -0.1162180E-02   -0.1119633E-02   -0.1091715E-02   -0.1015025E-02
 -0.9260203E-03   -0.6976921E-03   -0.8622418E-03   -0.9530869E-03   -0.1023407E-02   -0.9849738E-03   -0.1019863E-02   -0.1108284E-02   -0.1093187E-02   -0.1175871E-02
 -0.1323292E-02   -0.1312656E-02   -0.1285260E-02   -0.1247975E-02   -0.1209711E-02   -0.1166659E-02   -0.1107063E-02   -0.1069208E-02   -0.1037782E-02   -0.9878088E-03
 -0.9407671E-03   -0.8874656E-03   -0.9060700E-03   -0.9406330E-03   -0.9944416E-03   -0.9825509E-03   -0.9948773E-03   -0.1075808E-02   -0.1100685E-02   -0.1155696E-02
 -0.1288022E-02   -0.1323295E-02   -0.1261390E-02   -0.1210086E-02   -0.1151962E-02   -0.1107292E-02   -0.1059888E-02   -0.1014472E-02   -0.9950936E-03   -0.9718323E-03
 -0.9398548E-03   -0.9409198E-03   -0.9408082E-03   -0.9283007E-03   -0.9692217E-03   -0.9754018E-03   -0.9590875E-03   -0.1038838E-02   -0.1094080E-02   -0.1114343E-02
 -0.1247516E-02   -0.1322473E-02   -0.1240455E-02   -0.1180954E-02   -0.1121720E-02   -0.1081604E-02   -0.1024896E-02   -0.9855718E-03   -0.9826052E-03   -0.9569965E-03
 -0.9435140E-03   -0.9729336E-03   -0.9521214E-03   -0.9275957E-03   -0.9707637E-03   -0.9550203E-03   -0.9363408E-03   -0.1029210E-02   -0.1060889E-02   -0.1083284E-02