 TITLE = "NAVIER-STOKES OUTPUT"
 VARIABLES = "X", "Y", "U", "V", "P", "Pex", "Vor"
 ZONE I =   21, J =   21, DATAPACKING = BLOCK, VARLOCATION=(3=CELLCENTERED, 4=CELLCENTERED,5=CELLCENTERED,6=CELLCENTERED, 7=CELLCENTERED)
  0.0000000E+00    0.3141593E+00    0.6283185E+00    0.9424778E+00    0.1256637E+01    0.1570796E+01    0.1884956E+01    0.2199115E+01    0.2513274E+01    0.2827433E+01
  0.3141593E+01    0.3455752E+01    0.3769911E+01    0.4084071E+01    0.4398230E+01    0.4712389E+01    0.5026548E+01    0.5340708E+01    0.5654867E+01    0.5969026E+01
  0.6283185E+01    0.0000000E+00    0.3141593E+00    0.6283185E+00    0.9424778E+00    0.1256637E+01    0.1570796E+01    0.1884956E+01    0.2199115E+01    0.2513274E+01
  0.2827433E+01    0.3141593E+01    0.3455752E+01    0.3769911E+01    0.4084071E+01    0.4398230E+01    0.4712389E+01    0.5026548E+01    0.5340708E+01    0.5654867E+01
  0.5969026E+01    0.6283185E+01    0.0000000E+00    0.3141593E+00    0.6283185E+00    0.9424778E+00    0.1256637E+01    0.1570796E+01    0.1884956E+01    0.2199115E+01
  0.2513274E+01    0.2827433E+01    0.3141593E+01    0.3455752E+01    0.3769911E+01    0.4084071E+01    0.4398230E+01    0.4712389E+01    0.5026548E+01    0.5340708E+01
  0.5654867E+01    0.5969026E+01    0.6283185E+01    0.0000000E+00    0.3141593E+00    0.6283185E+00    0.9424778E+00    0.1256637E+01    0.1570796E+01    0.1884956E+01
  0.2199115E+01    0.2513274E+01    0.2827433E+01    0.3141593E+01    0.3455752E+01    0.3769911E+01    0.4084071E+01    0.4398230E+01    0.4712389E+01    0.5026548E+01
  0.5340708E+01    0.5654867E+01    0.5969026E+01    0.6283185E+01    0.0000000E+00    0.3141593E+00    0.6283185E+00    0.9424778E+00    0.1256637E+01    0.1570796E+01
  0.1884956E+01    0.2199115E+01    0.2513274E+01    0.2827433E+01    0.3141593E+01    0.3455752E+01    0.3769911E+01    0.4084071E+01    0.4398230E+01    0.4712389E+01
  0.5026548E+01    0.5340708E+01    0.5654867E+01    0.5969026E+01    0.6283185E+01    0.0000000E+00    0.3141593E+00    0.6283185E+00    0.9424778E+00    0.1256637E+01
  0.1570796E+01    0.1884956E+01    0.2199115E+01    0.2513274E+01    0.2827433E+01    0.3141593E+01    0.3455752E+01    0.3769911E+01    0.4084071E+01    0.4398230E+01
  0.4712389E+01    0.5026548E+01    0.5340708E+01    0.5654867E+01    0.5969026E+01    0.6283185E+01    0.0000000E+00    0.3141593E+00    0.6283185E+00    0.9424778E+00
  0.1256637E+01    0.1570796E+01    0.1884956E+01    0.2199115E+01    0.2513274E+01    0.2827433E+01    0.3141593E+01    0.3455752E+01    0.3769911E+01    0.4084071E+01
  0.4398230E+01    0.4712389E+01    0.5026548E+01    0.5340708E+01    0.5654867E+01    0.5969026E+01    0.6283185E+01    0.0000000E+00    0.3141593E+00    0.6283185E+00
  0.9424778E+00    0.1256637E+01    0.1570796E+01    0.1884956E+01    0.2199115E+01    0.2513274E+01    0.2827433E+01    0.3141593E+01    0.3455752E+01    0.3769911E+01
  0.4084071E+01    0.4398230E+01    0.4712389E+01    0.5026548E+01    0.5340708E+01    0.5654867E+01    0.5969026E+01    0.6283185E+01    0.0000000E+00    0.3141593E+00
  0.6283185E+00    0.9424778E+00    0.1256637E+01    0.1570796E+01    0.1884956E+01    0.2199115E+01    0.2513274E+01    0.2827433E+01    0.3141593E+01    0.3455752E+01
  0.3769911E+01    0.4084071E+01    0.4398230E+01    0.4712389E+01    0.5026548E+01    0.5340708E+01    0.5654867E+01    0.5969026E+01    0.6283185E+01    0.0000000E+00
  0.3141593E+00    0.6283185E+00    0.9424778E+00    0.1256637E+01    0.1570796E+01    0.1884956E+01    0.2199115E+01    0.2513274E+01    0.2827433E+01    0.3141593E+01
  0.3455752E+01    0.3769911E+01    0.4084071E+01    0.4398230E+01    0.4712389E+01    0.5026548E+01    0.5340708E+01    0.5654867E+01    0.5969026E+01    0.6283185E+01
  0.0000000E+00    0.3141593E+00    0.6283185E+00    0.9424778E+00    0.1256637E+01    0.1570796E+01    0.1884956E+01    0.2199115E+01    0.2513274E+01    0.2827433E+01
  0.3141593E+01    0.3455752E+01    0.3769911E+01    0.4084071E+01    0.4398230E+01    0.4712389E+01    0.5026548E+01    0.5340708E+01    0.5654867E+01    0.5969026E+01
  0.6283185E+01    0.0000000E+00    0.3141593E+00    0.6283185E+00    0.9424778E+00    0.1256637E+01    0.1570796E+01    0.1884956E+01    0.2199115E+01    0.2513274E+01
  0.2827433E+01    0.3141593E+01    0.3455752E+01    0.3769911E+01    0.4084071E+01    0.4398230E+01    0.4712389E+01    0.5026548E+01    0.5340708E+01    0.5654867E+01
  0.5969026E+01    0.6283185E+01    0.0000000E+00    0.3141593E+00    0.6283185E+00    0.9424778E+00    0.1256637E+01    0.1570796E+01    0.1884956E+01    0.2199115E+01
  0.2513274E+01    0.2827433E+01    0.3141593E+01    0.3455752E+01    0.3769911E+01    0.4084071E+01    0.4398230E+01    0.4712389E+01    0.5026548E+01    0.5340708E+01
  0.5654867E+01    0.5969026E+01    0.6283185E+01    0.0000000E+00    0.3141593E+00    0.6283185E+00    0.9424778E+00    0.1256637E+01    0.1570796E+01    0.1884956E+01
  0.2199115E+01    0.2513274E+01    0.2827433E+01    0.3141593E+01    0.3455752E+01    0.3769911E+01    0.4084071E+01    0.4398230E+01    0.4712389E+01    0.5026548E+01
  0.5340708E+01    0.5654867E+01    0.5969026E+01    0.6283185E+01    0.0000000E+00    0.3141593E+00    0.6283185E+00    0.9424778E+00    0.1256637E+01    0.1570796E+01
  0.1884956E+01    0.2199115E+01    0.2513274E+01    0.2827433E+01    0.3141593E+01    0.3455752E+01    0.3769911E+01    0.4084071E+01    0.4398230E+01    0.4712389E+01
  0.5026548E+01    0.5340708E+01    0.5654867E+01    0.5969026E+01    0.6283185E+01    0.0000000E+00    0.3141593E+00    0.6283185E+00    0.9424778E+00    0.1256637E+01
  0.1570796E+01    0.1884956E+01    0.2199115E+01    0.2513274E+01    0.2827433E+01    0.3141593E+01    0.3455752E+01    0.3769911E+01    0.4084071E+01    0.4398230E+01
  0.4712389E+01    0.5026548E+01    0.5340708E+01    0.5654867E+01    0.5969026E+01    0.6283185E+01    0.0000000E+00    0.3141593E+00    0.6283185E+00    0.9424778E+00
  0.1256637E+01    0.1570796E+01    0.1884956E+01    0.2199115E+01    0.2513274E+01    0.2827433E+01    0.3141593E+01    0.3455752E+01    0.3769911E+01    0.4084071E+01
  0.4398230E+01    0.4712389E+01    0.5026548E+01    0.5340708E+01    0.5654867E+01    0.5969026E+01    0.6283185E+01    0.0000000E+00    0.3141593E+00    0.6283185E+00
  0.9424778E+00    0.1256637E+01    0.1570796E+01    0.1884956E+01    0.2199115E+01    0.2513274E+01    0.2827433E+01    0.3141593E+01    0.3455752E+01    0.3769911E+01
  0.4084071E+01    0.4398230E+01    0.4712389E+01    0.5026548E+01    0.5340708E+01    0.5654867E+01    0.5969026E+01    0.6283185E+01    0.0000000E+00    0.3141593E+00
  0.6283185E+00    0.9424778E+00    0.1256637E+01    0.1570796E+01    0.1884956E+01    0.2199115E+01    0.2513274E+01    0.2827433E+01    0.3141593E+01    0.3455752E+01
  0.3769911E+01    0.4084071E+01    0.4398230E+01    0.4712389E+01    0.5026548E+01    0.5340708E+01    0.5654867E+01    0.5969026E+01    0.6283185E+01    0.0000000E+00
  0.3141593E+00    0.6283185E+00    0.9424778E+00    0.1256637E+01    0.1570796E+01    0.1884956E+01    0.2199115E+01    0.2513274E+01    0.2827433E+01    0.3141593E+01
  0.3455752E+01    0.3769911E+01    0.4084071E+01    0.4398230E+01    0.4712389E+01    0.5026548E+01    0.5340708E+01    0.5654867E+01    0.5969026E+01    0.6283185E+01
  0.0000000E+00    0.3141593E+00    0.6283185E+00    0.9424778E+00    0.1256637E+01    0.1570796E+01    0.1884956E+01    0.2199115E+01    0.2513274E+01    0.2827433E+01
  0.3141593E+01    0.3455752E+01    0.3769911E+01    0.4084071E+01    0.4398230E+01    0.4712389E+01    0.5026548E+01    0.5340708E+01    0.5654867E+01    0.5969026E+01
  0.6283185E+01    0.0000000E+00    0.0000000E+00    0.0000000E+00    0.0000000E+00    0.0000000E+00    0.0000000E+00    0.0000000E+00    0.0000000E+00    0.0000000E+00
  0.0000000E+00    0.0000000E+00    0.0000000E+00    0.0000000E+00    0.0000000E+00    0.0000000E+00    0.0000000E+00    0.0000000E+00    0.0000000E+00    0.0000000E+00
  0.0000000E+00    0.0000000E+00    0.3141593E+00    0.3141593E+00    0.3141593E+00    0.3141593E+00    0.3141593E+00    0.3141593E+00    0.3141593E+00    0.3141593E+00
  0.3141593E+00    0.3141593E+00    0.3141593E+00    0.3141593E+00    0.3141593E+00    0.3141593E+00    0.3141593E+00    0.3141593E+00    0.3141593E+00    0.3141593E+00
  0.3141593E+00    0.3141593E+00    0.3141593E+00    0.6283185E+00    0.6283185E+00    0.6283185E+00    0.6283185E+00    0.6283185E+00    0.6283185E+00    0.6283185E+00
  0.6283185E+00    0.6283185E+00    0.6283185E+00    0.6283185E+00    0.6283185E+00    0.6283185E+00    0.6283185E+00    0.6283185E+00    0.6283185E+00    0.6283185E+00
  0.6283185E+00    0.6283185E+00    0.6283185E+00    0.6283185E+00    0.9424778E+00    0.9424778E+00    0.9424778E+00    0.9424778E+00    0.9424778E+00    0.9424778E+00
  0.9424778E+00    0.9424778E+00    0.9424778E+00    0.9424778E+00    0.9424778E+00    0.9424778E+00    0.9424778E+00    0.9424778E+00    0.9424778E+00    0.9424778E+00
  0.9424778E+00    0.9424778E+00    0.9424778E+00    0.9424778E+00    0.9424778E+00    0.1256637E+01    0.1256637E+01    0.1256637E+01    0.1256637E+01    0.1256637E+01
  0.1256637E+01    0.1256637E+01    0.1256637E+01    0.1256637E+01    0.1256637E+01    0.1256637E+01    0.1256637E+01    0.1256637E+01    0.1256637E+01    0.1256637E+01
  0.1256637E+01    0.1256637E+01    0.1256637E+01    0.1256637E+01    0.1256637E+01    0.1256637E+01    0.1570796E+01    0.1570796E+01    0.1570796E+01    0.1570796E+01
  0.1570796E+01    0.1570796E+01    0.1570796E+01    0.1570796E+01    0.1570796E+01    0.1570796E+01    0.1570796E+01    0.1570796E+01    0.1570796E+01    0.1570796E+01
  0.1570796E+01    0.1570796E+01    0.1570796E+01    0.1570796E+01    0.1570796E+01    0.1570796E+01    0.1570796E+01    0.1884956E+01    0.1884956E+01    0.1884956E+01
  0.1884956E+01    0.1884956E+01    0.1884956E+01    0.1884956E+01    0.1884956E+01    0.1884956E+01    0.1884956E+01    0.1884956E+01    0.1884956E+01    0.1884956E+01
  0.1884956E+01    0.1884956E+01    0.1884956E+01    0.1884956E+01    0.1884956E+01    0.1884956E+01    0.1884956E+01    0.1884956E+01    0.2199115E+01    0.2199115E+01
  0.2199115E+01    0.2199115E+01    0.2199115E+01    0.2199115E+01    0.2199115E+01    0.2199115E+01    0.2199115E+01    0.2199115E+01    0.2199115E+01    0.2199115E+01
  0.2199115E+01    0.2199115E+01    0.2199115E+01    0.2199115E+01    0.2199115E+01    0.2199115E+01    0.2199115E+01    0.2199115E+01    0.2199115E+01    0.2513274E+01
  0.2513274E+01    0.2513274E+01    0.2513274E+01    0.2513274E+01    0.2513274E+01    0.2513274E+01    0.2513274E+01    0.2513274E+01    0.2513274E+01    0.2513274E+01
  0.2513274E+01    0.2513274E+01    0.2513274E+01    0.2513274E+01    0.2513274E+01    0.2513274E+01    0.2513274E+01    0.2513274E+01    0.2513274E+01    0.2513274E+01
  0.2827433E+01    0.2827433E+01    0.2827433E+01    0.2827433E+01    0.2827433E+01    0.2827433E+01    0.2827433E+01    0.2827433E+01    0.2827433E+01    0.2827433E+01
  0.2827433E+01    0.2827433E+01    0.2827433E+01    0.2827433E+01    0.2827433E+01    0.2827433E+01    0.2827433E+01    0.2827433E+01    0.2827433E+01    0.2827433E+01
  0.2827433E+01    0.3141593E+01    0.3141593E+01    0.3141593E+01    0.3141593E+01    0.3141593E+01    0.3141593E+01    0.3141593E+01    0.3141593E+01    0.3141593E+01
  0.3141593E+01    0.3141593E+01    0.3141593E+01    0.3141593E+01    0.3141593E+01    0.3141593E+01    0.3141593E+01    0.3141593E+01    0.3141593E+01    0.3141593E+01
  0.3141593E+01    0.3141593E+01    0.3455752E+01    0.3455752E+01    0.3455752E+01    0.3455752E+01    0.3455752E+01    0.3455752E+01    0.3455752E+01    0.3455752E+01
  0.3455752E+01    0.3455752E+01    0.3455752E+01    0.3455752E+01    0.3455752E+01    0.3455752E+01    0.3455752E+01    0.3455752E+01    0.3455752E+01    0.3455752E+01
  0.3455752E+01    0.3455752E+01    0.3455752E+01    0.3769911E+01    0.3769911E+01    0.3769911E+01    0.3769911E+01    0.3769911E+01    0.3769911E+01    0.3769911E+01
  0.3769911E+01    0.3769911E+01    0.3769911E+01    0.3769911E+01    0.3769911E+01    0.3769911E+01    0.3769911E+01    0.3769911E+01    0.3769911E+01    0.3769911E+01
  0.3769911E+01    0.3769911E+01    0.3769911E+01    0.3769911E+01    0.4084071E+01    0.4084071E+01    0.4084071E+01    0.4084071E+01    0.4084071E+01    0.4084071E+01
  0.4084071E+01    0.4084071E+01    0.4084071E+01    0.4084071E+01    0.4084071E+01    0.4084071E+01    0.4084071E+01    0.4084071E+01    0.4084071E+01    0.4084071E+01
  0.4084071E+01    0.4084071E+01    0.4084071E+01    0.4084071E+01    0.4084071E+01    0.4398230E+01    0.4398230E+01    0.4398230E+01    0.4398230E+01    0.4398230E+01
  0.4398230E+01    0.4398230E+01    0.4398230E+01    0.4398230E+01    0.4398230E+01    0.4398230E+01    0.4398230E+01    0.4398230E+01    0.4398230E+01    0.4398230E+01
  0.4398230E+01    0.4398230E+01    0.4398230E+01    0.4398230E+01    0.4398230E+01    0.4398230E+01    0.4712389E+01    0.4712389E+01    0.4712389E+01    0.4712389E+01
  0.4712389E+01    0.4712389E+01    0.4712389E+01    0.4712389E+01    0.4712389E+01    0.4712389E+01    0.4712389E+01    0.4712389E+01    0.4712389E+01    0.4712389E+01
  0.4712389E+01    0.4712389E+01    0.4712389E+01    0.4712389E+01    0.4712389E+01    0.4712389E+01    0.4712389E+01    0.5026548E+01    0.5026548E+01    0.5026548E+01
  0.5026548E+01    0.5026548E+01    0.5026548E+01    0.5026548E+01    0.5026548E+01    0.5026548E+01    0.5026548E+01    0.5026548E+01    0.5026548E+01    0.5026548E+01
  0.5026548E+01    0.5026548E+01    0.5026548E+01    0.5026548E+01    0.5026548E+01    0.5026548E+01    0.5026548E+01    0.5026548E+01    0.5340708E+01    0.5340708E+01
  0.5340708E+01    0.5340708E+01    0.5340708E+01    0.5340708E+01    0.5340708E+01    0.5340708E+01    0.5340708E+01    0.5340708E+01    0.5340708E+01    0.5340708E+01
  0.5340708E+01    0.5340708E+01    0.5340708E+01    0.5340708E+01    0.5340708E+01    0.5340708E+01    0.5340708E+01    0.5340708E+01    0.5340708E+01    0.5654867E+01
  0.5654867E+01    0.5654867E+01    0.5654867E+01    0.5654867E+01    0.5654867E+01    0.5654867E+01    0.5654867E+01    0.5654867E+01    0.5654867E+01    0.5654867E+01
  0.5654867E+01    0.5654867E+01    0.5654867E+01    0.5654867E+01    0.5654867E+01    0.5654867E+01    0.5654867E+01    0.5654867E+01    0.5654867E+01    0.5654867E+01
  0.5969026E+01    0.5969026E+01    0.5969026E+01    0.5969026E+01    0.5969026E+01    0.5969026E+01    0.5969026E+01    0.5969026E+01    0.5969026E+01    0.5969026E+01
  0.5969026E+01    0.5969026E+01    0.5969026E+01    0.5969026E+01    0.5969026E+01    0.5969026E+01    0.5969026E+01    0.5969026E+01    0.5969026E+01    0.5969026E+01
  0.5969026E+01    0.6283185E+01    0.6283185E+01    0.6283185E+01    0.6283185E+01    0.6283185E+01    0.6283185E+01    0.6283185E+01    0.6283185E+01    0.6283185E+01
  0.6283185E+01    0.6283185E+01    0.6283185E+01    0.6283185E+01    0.6283185E+01    0.6283185E+01    0.6283185E+01    0.6283185E+01    0.6283185E+01    0.6283185E+01
  0.6283185E+01    0.6283185E+01   -0.3190900E-02   -0.2878793E-02   -0.2284942E-02   -0.1467617E-02   -0.5067016E-03    0.5036584E-03    0.1464190E-02    0.2280587E-02
  0.2872366E-02    0.3189760E-02    0.3195117E-02    0.2880869E-02    0.2285666E-02    0.1467808E-02    0.5069430E-03   -0.5038222E-03   -0.1464791E-02   -0.2281836E-02
 -0.2876131E-02   -0.3188288E-02   -0.9256947E-02   -0.8351012E-02   -0.6627614E-02   -0.4255549E-02   -0.1467015E-02    0.1464964E-02    0.4253229E-02    0.6624840E-02
  0.8348014E-02    0.9256416E-02    0.9258840E-02    0.8352608E-02    0.6628566E-02    0.4256084E-02    0.1467463E-02   -0.1464838E-02   -0.4253494E-02   -0.6625398E-02
 -0.8348969E-02   -0.9255045E-02   -0.1441709E-01   -0.1300589E-01   -0.1032161E-01   -0.6627040E-02   -0.2283853E-02    0.2282808E-02    0.6625870E-02    0.1032028E-01
  0.1300473E-01    0.1441696E-01    0.1441797E-01    0.1300700E-01    0.1032251E-01    0.6627636E-02    0.2284314E-02   -0.2282586E-02   -0.6625945E-02   -0.1032038E-01
 -0.1300466E-01   -0.1441597E-01   -0.1816616E-01   -0.1638786E-01   -0.1300543E-01   -0.8350010E-02   -0.2877278E-02    0.2877069E-02    0.8349698E-02    0.1300503E-01
  0.1638756E-01    0.1816617E-01    0.1816657E-01    0.1638855E-01    0.1300605E-01    0.8350401E-02    0.2877579E-02   -0.2876975E-02   -0.8349834E-02   -0.1300508E-01
 -0.1638740E-01   -0.1816550E-01   -0.2013695E-01   -0.1816579E-01   -0.1441638E-01   -0.9255791E-02   -0.3189206E-02    0.3189520E-02    0.9255980E-02    0.1441644E-01
  0.1816584E-01    0.2013708E-01    0.2013718E-01    0.1816606E-01    0.1441655E-01    0.9255822E-02    0.3189168E-02   -0.3189731E-02   -0.9256337E-02   -0.1441674E-01
 -0.1816604E-01   -0.2013711E-01   -0.2013716E-01   -0.1816584E-01   -0.1441636E-01   -0.9255727E-02   -0.3189147E-02    0.3189580E-02    0.9256037E-02    0.1441643E-01
  0.1816570E-01    0.2013678E-01    0.2013668E-01    0.1816546E-01    0.1441597E-01    0.9255248E-02    0.3188631E-02   -0.3190168E-02   -0.9256756E-02   -0.1441713E-01
 -0.1816637E-01   -0.2013753E-01   -0.1816638E-01   -0.1638791E-01   -0.1300534E-01   -0.8349839E-02   -0.2877075E-02    0.2877274E-02    0.8349858E-02    0.1300505E-01
  0.1638727E-01    0.1816528E-01    0.1816508E-01    0.1638680E-01    0.1300429E-01    0.8348764E-02    0.2876076E-02   -0.2878299E-02   -0.8350992E-02   -0.1300613E-01
 -0.1638832E-01   -0.1816631E-01   -0.1441725E-01   -0.1300585E-01   -0.1032140E-01   -0.6626727E-02   -0.2283486E-02    0.2283165E-02    0.6626194E-02    0.1032055E-01
  0.1300461E-01    0.1441558E-01    0.1441540E-01    0.1300410E-01    0.1031972E-01    0.6625147E-02    0.2282024E-02   -0.2284617E-02   -0.6627648E-02   -0.1032195E-01
 -0.1300604E-01   -0.1441705E-01   -0.9257161E-02   -0.8350817E-02   -0.6627200E-02   -0.4255023E-02   -0.1466506E-02    0.1465447E-02    0.4253823E-02    0.6625668E-02
  0.8348886E-02    0.9254767E-02    0.9254596E-02    0.8348479E-02    0.6625071E-02    0.4253022E-02    0.1464635E-02   -0.1467189E-02   -0.4255535E-02   -0.6627330E-02
 -0.8350470E-02   -0.9256427E-02   -0.3190834E-02   -0.2878357E-02   -0.2284319E-02   -0.1466901E-02   -0.5060579E-03    0.5042120E-03    0.1464930E-02    0.2282120E-02
  0.2875880E-02    0.3187958E-02    0.3187860E-02    0.2875709E-02    0.2281888E-02    0.1464589E-02    0.5039666E-03   -0.5061633E-03   -0.1466845E-02   -0.2283843E-02
 -0.2877431E-02   -0.3189324E-02    0.3188219E-02    0.2875998E-02    0.2282160E-02    0.1464778E-02    0.5038834E-03   -0.5064892E-03   -0.1467444E-02   -0.2284852E-02
 -0.2878726E-02   -0.3190958E-02   -0.3190902E-02   -0.2878604E-02   -0.2284672E-02   -0.1467133E-02   -0.5060687E-03    0.5044005E-03    0.1465507E-02    0.2283103E-02
  0.2877109E-02    0.3189518E-02    0.9254732E-02    0.8348660E-02    0.6625166E-02    0.4253010E-02    0.1464382E-02   -0.1467697E-02   -0.4256222E-02   -0.6628285E-02
 -0.8351618E-02   -0.9257520E-02   -0.9257393E-02   -0.8351167E-02   -0.6627531E-02   -0.4255304E-02   -0.1466595E-02    0.1465659E-02    0.4254297E-02    0.6626470E-02
  0.8350003E-02    0.9255917E-02    0.1441532E-01    0.1300398E-01    0.1031955E-01    0.6624785E-02    0.2281430E-02   -0.2285311E-02   -0.6628514E-02   -0.1032299E-01
 -0.1300701E-01   -0.1441799E-01   -0.1441776E-01   -0.1300622E-01   -0.1032172E-01   -0.6626980E-02   -0.2283486E-02    0.2283355E-02    0.6626588E-02    0.1032129E-01
  0.1300553E-01    0.1441675E-01    0.1816525E-01    0.1638645E-01    0.1300368E-01    0.8347975E-02    0.2875065E-02   -0.2879368E-02   -0.8352046E-02   -0.1300722E-01
 -0.1638929E-01   -0.1816718E-01   -0.1816678E-01   -0.1638821E-01   -0.1300558E-01   -0.8349873E-02   -0.2876936E-02    0.2877499E-02    0.8350318E-02    0.1300564E-01
  0.1638777E-01    0.1816582E-01    0.2013618E-01    0.1816452E-01    0.1441471E-01    0.9253851E-02    0.3187087E-02   -0.3191691E-02   -0.9258093E-02   -0.1441838E-01
 -0.1816735E-01   -0.2013802E-01   -0.2013760E-01   -0.1816605E-01   -0.1441629E-01   -0.9255522E-02   -0.3188810E-02    0.3190090E-02    0.9256543E-02    0.1441683E-01
  0.1816591E-01    0.2013636E-01    0.2013565E-01    0.1816420E-01    0.1441451E-01    0.9253679E-02    0.3186973E-02   -0.3191710E-02   -0.9258072E-02   -0.1441825E-01
 -0.1816707E-01   -0.2013772E-01   -0.2013726E-01   -0.1816558E-01   -0.1441592E-01   -0.9255203E-02   -0.3188407E-02    0.3190320E-02    0.9256671E-02    0.1441706E-01
  0.1816597E-01    0.2013667E-01    0.1816514E-01    0.1638608E-01    0.1300324E-01    0.8347574E-02    0.2874784E-02   -0.2879467E-02   -0.8351913E-02   -0.1300683E-01
 -0.1638863E-01   -0.1816624E-01   -0.1816560E-01   -0.1638698E-01   -0.1300439E-01   -0.8348760E-02   -0.2875983E-02    0.2878269E-02    0.8350917E-02    0.1300598E-01
  0.1638783E-01    0.1816574E-01    0.1441518E-01    0.1300354E-01    0.1031893E-01    0.6624213E-02    0.2281002E-02   -0.2285524E-02   -0.6628359E-02   -0.1032246E-01
 -0.1300608E-01   -0.1441644E-01   -0.1441580E-01   -0.1300422E-01   -0.1031971E-01   -0.6625159E-02   -0.2282023E-02    0.2284698E-02    0.6627615E-02    0.1032177E-01
  0.1300562E-01    0.1441571E-01    0.9254082E-02    0.8347937E-02    0.6624396E-02    0.4252246E-02    0.1463758E-02   -0.1468031E-02   -0.4256269E-02   -0.6627970E-02
 -0.8350693E-02   -0.9255647E-02   -0.9254670E-02   -0.8348160E-02   -0.6624824E-02   -0.4253001E-02   -0.1464432E-02    0.1467412E-02    0.4255578E-02    0.6627631E-02
  0.8350743E-02    0.9256384E-02    0.3188695E-02    0.2875628E-02    0.2281466E-02    0.1463991E-02    0.5031301E-03   -0.5070218E-03   -0.1467822E-02   -0.2285210E-02
 -0.2878811E-02   -0.3188940E-02   -0.3186837E-02   -0.2874553E-02   -0.2281277E-02   -0.1464325E-02   -0.5034964E-03    0.5065615E-03    0.1467165E-02    0.2284670E-02
  0.2878450E-02    0.3190439E-02    0.3179255E-02    0.9245324E-02    0.1440475E-01    0.1815240E-01    0.2012168E-01    0.2011944E-01    0.1814616E-01    0.1439534E-01
  0.9234943E-02    0.3182606E-02   -0.3210164E-02   -0.9277488E-02   -0.1443678E-01   -0.1818376E-01   -0.2015311E-01   -0.2015148E-01   -0.1817763E-01   -0.1442737E-01
 -0.9266427E-02   -0.3198333E-02    0.2867215E-02    0.8339306E-02    0.1299354E-01    0.1637418E-01    0.1815043E-01    0.1814837E-01    0.1636838E-01    0.1298509E-01
  0.8330278E-02    0.2861362E-02   -0.2896741E-02   -0.8370251E-02   -0.1302488E-01   -0.1640543E-01   -0.1818173E-01   -0.1817993E-01   -0.1639968E-01   -0.1301608E-01
 -0.8360033E-02   -0.2886654E-02    0.2273474E-02    0.6615949E-02    0.1030928E-01    0.1299184E-01    0.1440108E-01    0.1439913E-01    0.1298632E-01    0.1030115E-01
  0.6606647E-02    0.2264329E-02   -0.2303180E-02   -0.6646458E-02   -0.1034017E-01   -0.1302285E-01   -0.1443219E-01   -0.1443033E-01   -0.1301737E-01   -0.1033183E-01
 -0.6636501E-02   -0.2292943E-02    0.1456018E-02    0.4243850E-02    0.6614683E-02    0.8336408E-02    0.9240548E-02    0.9238678E-02    0.8331057E-02    0.6606639E-02
  0.4234244E-02    0.1445835E-02   -0.1486203E-02   -0.4274305E-02   -0.6645374E-02   -0.8367244E-02   -0.9271463E-02   -0.9269668E-02   -0.8361979E-02   -0.6637293E-02
 -0.4264512E-02   -0.1475740E-02    0.4951204E-03    0.1455279E-02    0.2271408E-02    0.2863625E-02    0.3173997E-02    0.3172172E-02    0.2858409E-02    0.2263476E-02
  0.1445548E-02    0.4845754E-03   -0.5255089E-03   -0.1485749E-02   -0.2302011E-02   -0.2894304E-02   -0.3204766E-02   -0.3203036E-02   -0.2889230E-02   -0.2294191E-02
 -0.1476135E-02   -0.5150374E-03   -0.5152113E-03   -0.1476801E-02   -0.2295358E-02   -0.2890760E-02   -0.3204736E-02   -0.3206494E-02   -0.2895812E-02   -0.2303120E-02
 -0.1486440E-02   -0.5257541E-03    0.4848057E-03    0.1446365E-02    0.2264884E-02    0.2860221E-02    0.3174094E-02    0.3175792E-02    0.2865087E-02    0.2272398E-02
  0.1455798E-02    0.4951912E-03   -0.1476341E-02   -0.4265516E-02   -0.6638696E-02   -0.8363588E-02   -0.9271309E-02   -0.9272967E-02   -0.8368415E-02   -0.6646168E-02
 -0.4274801E-02   -0.1486518E-02    0.1445756E-02    0.4235021E-02    0.6608198E-02    0.8333036E-02    0.9240722E-02    0.9242309E-02    0.8337698E-02    0.6615476E-02
  0.4244117E-02    0.1455840E-02   -0.2293944E-02   -0.6637809E-02   -0.1033344E-01   -0.1301909E-01   -0.1443184E-01   -0.1443343E-01   -0.1302366E-01   -0.1034051E-01
 -0.6646672E-02   -0.2303718E-02    0.2263274E-02    0.6607176E-02    0.1030281E-01    0.1298848E-01    0.1440121E-01    0.1440272E-01    0.1299296E-01    0.1030981E-01
  0.6615929E-02    0.2272990E-02   -0.2887986E-02   -0.8361410E-02   -0.1301783E-01   -0.1640146E-01   -0.1818115E-01   -0.1818265E-01   -0.1640579E-01   -0.1302453E-01
 -0.8369852E-02   -0.2897337E-02    0.2857263E-02    0.8330661E-02    0.1298713E-01    0.1637080E-01    0.1815045E-01    0.1815197E-01    0.1637510E-01    0.1299381E-01
  0.8339181E-02    0.2866694E-02   -0.3200561E-02   -0.9267719E-02   -0.1442918E-01   -0.1817975E-01   -0.2015229E-01   -0.2015370E-01   -0.1818387E-01   -0.1443558E-01
 -0.9275723E-02   -0.3209431E-02    0.3169517E-02    0.9236751E-02    0.1439827E-01    0.1814887E-01    0.2012149E-01    0.2012290E-01    0.1815303E-01    0.1440480E-01
  0.9244947E-02    0.3178578E-02   -0.3200737E-02   -0.9267863E-02   -0.1442928E-01   -0.1817979E-01   -0.2015225E-01   -0.2015364E-01   -0.1818380E-01   -0.1443548E-01
 -0.9275678E-02   -0.3209431E-02    0.3169522E-02    0.9236661E-02    0.1439812E-01    0.1814875E-01    0.2012127E-01    0.2012264E-01    0.1815284E-01    0.1440453E-01
  0.9244643E-02    0.3178349E-02   -0.2888443E-02   -0.8361720E-02   -0.1301797E-01   -0.1640143E-01   -0.1818097E-01   -0.1818238E-01   -0.1640547E-01   -0.1302425E-01
 -0.8369651E-02   -0.2897240E-02    0.2857220E-02    0.8330468E-02    0.1298682E-01    0.1637035E-01    0.1814989E-01    0.1815135E-01    0.1637444E-01    0.1299313E-01
  0.8338558E-02    0.2866157E-02   -0.2294619E-02   -0.6638213E-02   -0.1033356E-01   -0.1301897E-01   -0.1443154E-01   -0.1443297E-01   -0.1302318E-01   -0.1034013E-01
 -0.6646384E-02   -0.2303620E-02    0.2263114E-02    0.6606866E-02    0.1030230E-01    0.1298773E-01    0.1440039E-01    0.1440181E-01    0.1299192E-01    0.1030888E-01
  0.6615110E-02    0.2272244E-02   -0.1476937E-02   -0.4265863E-02   -0.6638783E-02   -0.8363412E-02   -0.9270902E-02   -0.9272470E-02   -0.8367928E-02   -0.6645765E-02
 -0.4274646E-02   -0.1486628E-02    0.1445462E-02    0.4234469E-02    0.6607423E-02    0.8332150E-02    0.9239637E-02    0.9241108E-02    0.8336573E-02    0.6614347E-02
  0.4243075E-02    0.1455018E-02   -0.5153737E-03   -0.1476770E-02   -0.2295128E-02   -0.2890331E-02   -0.3204162E-02   -0.3205882E-02   -0.2895282E-02   -0.2302834E-02
 -0.1486491E-02   -0.5260941E-03    0.4842230E-03    0.1445595E-02    0.2264011E-02    0.2859179E-02    0.3172897E-02    0.3174599E-02    0.2863900E-02    0.2271300E-02
  0.1455004E-02    0.4946888E-03    0.4952217E-03    0.1455631E-02    0.2271924E-02    0.2864234E-02    0.3174631E-02    0.3172771E-02    0.2858783E-02    0.2263437E-02
  0.1445066E-02    0.4836645E-03   -0.5265961E-03   -0.1486757E-02   -0.2303030E-02   -0.2895452E-02   -0.3205884E-02   -0.3204167E-02   -0.2890360E-02   -0.2294982E-02
 -0.1476590E-02   -0.5151421E-03    0.1456641E-02    0.4244579E-02    0.6615406E-02    0.8337095E-02    0.9241172E-02    0.9239102E-02    0.8331121E-02    0.6606153E-02
  0.4232942E-02    0.1443870E-02   -0.1487908E-02   -0.4275684E-02   -0.6646541E-02   -0.8368265E-02   -0.9272542E-02   -0.9270720E-02   -0.8362764E-02   -0.6637875E-02
 -0.4264750E-02   -0.1475532E-02    0.2274920E-02    0.6617279E-02    0.1031038E-01    0.1299274E-01    0.1440174E-01    0.1439947E-01    0.1298623E-01    0.1030022E-01
  0.6604366E-02    0.2260604E-02   -0.2305774E-02   -0.6648069E-02   -0.1034113E-01   -0.1302373E-01   -0.1443312E-01   -0.1443100E-01   -0.1301792E-01   -0.1033213E-01
 -0.6636072E-02   -0.2292052E-02    0.2868903E-02    0.8340918E-02    0.1299480E-01    0.1637510E-01    0.1815094E-01    0.1814854E-01    0.1636818E-01    0.1298393E-01
  0.8327018E-02    0.2853247E-02   -0.2900243E-02   -0.8371603E-02   -0.1302537E-01   -0.1640608E-01   -0.1818234E-01   -0.1818021E-01   -0.1640007E-01   -0.1301602E-01
 -0.8358979E-02   -0.2885237E-02    0.3181604E-02    0.9247252E-02    0.1440602E-01    0.1815331E-01    0.2012195E-01    0.2011937E-01    0.1814622E-01    0.1439490E-01
  0.9232325E-02    0.3162832E-02   -0.3212885E-02   -0.9277689E-02   -0.1443614E-01   -0.1818404E-01   -0.2015367E-01   -0.2015110E-01   -0.1817787E-01   -0.1442761E-01
 -0.9264672E-02   -0.3197055E-02   -0.9447369E-03   -0.9316293E-03   -0.9227700E-03   -0.9356541E-03   -0.8512790E-03   -0.8000892E-03   -0.8102163E-03   -0.7357966E-03
 -0.6872136E-03   -0.6170336E-03   -0.7186759E-03   -0.7922112E-03   -0.9981540E-03   -0.8615316E-03   -0.8029340E-03   -0.9977276E-03   -0.7926307E-03   -0.7290533E-03
 -0.9765335E-03   -0.7764180E-03   -0.9173666E-03   -0.9179286E-03   -0.9285452E-03   -0.9275369E-03   -0.8620684E-03   -0.8302673E-03   -0.8175343E-03   -0.7592842E-03
 -0.7465970E-03   -0.7976943E-03   -0.7680800E-03   -0.8236327E-03   -0.9973463E-03   -0.8777230E-03   -0.8416169E-03   -0.9982070E-03   -0.8191121E-03   -0.7824518E-03
 -0.9433207E-03   -0.7766652E-03   -0.9193425E-03   -0.9343946E-03   -0.9118303E-03   -0.9105379E-03   -0.8749662E-03   -0.8118339E-03   -0.8115331E-03   -0.7891343E-03
 -0.7533307E-03   -0.8514688E-03   -0.8392601E-03   -0.8155533E-03   -0.9747140E-03   -0.9173808E-03   -0.8093940E-03   -0.9645144E-03   -0.8779363E-03   -0.7476917E-03
 -0.9034283E-03   -0.8262354E-03   -0.9554897E-03   -0.9578444E-03   -0.9405114E-03   -0.9580740E-03   -0.8903520E-03   -0.8259937E-03   -0.8597928E-03   -0.7989169E-03
 -0.7731032E-03   -0.9249699E-03   -0.8711499E-03   -0.8227775E-03   -0.1009593E-02   -0.9067256E-03   -0.7866897E-03   -0.9914625E-03   -0.8536721E-03   -0.7204044E-03