 TITLE = "NAVIER-STOKES OUTPUT"
 VARIABLES = "X", "Y", "U", "V", "P", "Pex", "Vor"
 ZONE I =   21, J =   21, DATAPACKING = BLOCK, VARLOCATION=(3=CELLCENTERED, 4=CELLCENTERED,5=CELLCENTERED,6=CELLCENTERED, 7=CELLCENTERED)
  0.0000000E+00    0.3141593E+00    0.6283185E+00    0.9424778E+00    0.1256637E+01    0.1570796E+01    0.1884956E+01    0.2199115E+01    0.2513274E+01    0.2827433E+01
  0.3141593E+01    0.3455752E+01    0.3769911E+01    0.4084071E+01    0.4398230E+01    0.4712389E+01    0.5026548E+01    0.5340708E+01    0.5654867E+01    0.5969026E+01
  0.6283185E+01    0.0000000E+00    0.3141593E+00    0.6283185E+00    0.9424778E+00    0.1256637E+01    0.1570796E+01    0.1884956E+01    0.2199115E+01    0.2513274E+01
  0.2827433E+01    0.3141593E+01    0.3455752E+01    0.3769911E+01    0.4084071E+01    0.4398230E+01    0.4712389E+01    0.5026548E+01    0.5340708E+01    0.5654867E+01
  0.5969026E+01    0.6283185E+01    0.0000000E+00    0.3141593E+00    0.6283185E+00    0.9424778E+00    0.1256637E+01    0.1570796E+01    0.1884956E+01    0.2199115E+01
  0.2513274E+01    0.2827433E+01    0.3141593E+01    0.3455752E+01    0.3769911E+01    0.4084071E+01    0.4398230E+01    0.4712389E+01    0.5026548E+01    0.5340708E+01
  0.5654867E+01    0.5969026E+01    0.6283185E+01    0.0000000E+00    0.3141593E+00    0.6283185E+00    0.9424778E+00    0.1256637E+01    0.1570796E+01    0.1884956E+01
  0.2199115E+01    0.2513274E+01    0.2827433E+01    0.3141593E+01    0.3455752E+01    0.3769911E+01    0.4084071E+01    0.4398230E+01    0.4712389E+01    0.5026548E+01
  0.5340708E+01    0.5654867E+01    0.5969026E+01    0.6283185E+01    0.0000000E+00    0.3141593E+00    0.6283185E+00    0.9424778E+00    0.1256637E+01    0.1570796E+01
  0.1884956E+01    0.2199115E+01    0.2513274E+01    0.2827433E+01    0.3141593E+01    0.3455752E+01    0.3769911E+01    0.4084071E+01    0.4398230E+01    0.4712389E+01
  0.5026548E+01    0.5340708E+01    0.5654867E+01    0.5969026E+01    0.6283185E+01    0.0000000E+00    0.3141593E+00    0.6283185E+00    0.9424778E+00    0.1256637E+01
  0.1570796E+01    0.1884956E+01    0.2199115E+01    0.2513274E+01    0.2827433E+01    0.3141593E+01    0.3455752E+01    0.3769911E+01    0.4084071E+01    0.4398230E+01
  0.4712389E+01    0.5026548E+01    0.5340708E+01    0.5654867E+01    0.5969026E+01    0.6283185E+01    0.0000000E+00    0.3141593E+00    0.6283185E+00    0.9424778E+00
  0.1256637E+01    0.1570796E+01    0.1884956E+01    0.2199115E+01    0.2513274E+01    0.2827433E+01    0.3141593E+01    0.3455752E+01    0.3769911E+01    0.4084071E+01
  0.4398230E+01    0.4712389E+01    0.5026548E+01    0.5340708E+01    0.5654867E+01    0.5969026E+01    0.6283185E+01    0.0000000E+00    0.3141593E+00    0.6283185E+00
  0.9424778E+00    0.1256637E+01    0.1570796E+01    0.1884956E+01    0.2199115E+01    0.2513274E+01    0.2827433E+01    0.3141593E+01    0.3455752E+01    0.3769911E+01
  0.4084071E+01    0.4398230E+01    0.4712389E+01    0.5026548E+01    0.5340708E+01    0.5654867E+01    0.5969026E+01    0.6283185E+01    0.0000000E+00    0.3141593E+00
  0.6283185E+00    0.9424778E+00    0.1256637E+01    0.1570796E+01    0.1884956E+01    0.2199115E+01    0.2513274E+01    0.2827433E+01    0.3141593E+01    0.3455752E+01
  0.3769911E+01    0.4084071E+01    0.4398230E+01    0.4712389E+01    0.5026548E+01    0.5340708E+01    0.5654867E+01    0.5969026E+01    0.6283185E+01    0.0000000E+00
  0.3141593E+00    0.6283185E+00    0.9424778E+00    0.1256637E+01    0.1570796E+01    0.1884956E+01    0.2199115E+01    0.2513274E+01    0.2827433E+01    0.3141593E+01
  0.3455752E+01    0.3769911E+01    0.4084071E+01    0.4398230E+01    0.4712389E+01    0.5026548E+01    0.5340708E+01    0.5654867E+01    0.5969026E+01    0.6283185E+01
  0.0000000E+00    0.3141593E+00    0.6283185E+00    0.9424778E+00    0.1256637E+01    0.1570796E+01    0.1884956E+01    0.2199115E+01    0.2513274E+01    0.2827433E+01
  0.3141593E+01    0.3455752E+01    0.3769911E+01    0.4084071E+01    0.4398230E+01    0.4712389E+01    0.5026548E+01    0.5340708E+01    0.5654867E+01    0.5969026E+01
  0.6283185E+01    0.0000000E+00    0.3141593E+00    0.6283185E+00    0.9424778E+00    0.1256637E+01    0.1570796E+01    0.1884956E+01    0.2199115E+01    0.2513274E+01
  0.2827433E+01    0.3141593E+01    0.3455752E+01    0.3769911E+01    0.4084071E+01    0.4398230E+01    0.4712389E+01    0.5026548E+01    0.5340708E+01    0.5654867E+01
  0.5969026E+01    0.6283185E+01    0.0000000E+00    0.3141593E+00    0.6283185E+00    0.9424778E+00    0.1256637E+01    0.1570796E+01    0.1884956E+01    0.2199115E+01
  0.2513274E+01    0.2827433E+01    0.3141593E+01    0.3455752E+01    0.3769911E+01    0.4084071E+01    0.4398230E+01    0.4712389E+01    0.5026548E+01    0.5340708E+01
  0.5654867E+01    0.5969026E+01    0.6283185E+01    0.0000000E+00    0.3141593E+00    0.6283185E+00    0.9424778E+00    0.1256637E+01    0.1570796E+01    0.1884956E+01
  0.2199115E+01    0.2513274E+01    0.2827433E+01    0.3141593E+01    0.3455752E+01    0.3769911E+01    0.4084071E+01    0.4398230E+01    0.4712389E+01    0.5026548E+01
  0.5340708E+01    0.5654867E+01    0.5969026E+01    0.6283185E+01    0.0000000E+00    0.3141593E+00    0.6283185E+00    0.9424778E+00    0.1256637E+01    0.1570796E+01
  0.1884956E+01    0.2199115E+01    0.2513274E+01    0.2827433E+01    0.3141593E+01    0.3455752E+01    0.3769911E+01    0.4084071E+01    0.4398230E+01    0.4712389E+01
  0.5026548E+01    0.5340708E+01    0.5654867E+01    0.5969026E+01    0.6283185E+01    0.0000000E+00    0.3141593E+00    0.6283185E+00    0.9424778E+00    0.1256637E+01
  0.1570796E+01    0.1884956E+01    0.2199115E+01    0.2513274E+01    0.2827433E+01    0.3141593E+01    0.3455752E+01    0.3769911E+01    0.4084071E+01    0.4398230E+01
  0.4712389E+01    0.5026548E+01    0.5340708E+01    0.5654867E+01    0.5969026E+01    0.6283185E+01    0.0000000E+00    0.3141593E+00    0.6283185E+00    0.9424778E+00
  0.1256637E+01    0.1570796E+01    0.1884956E+01    0.2199115E+01    0.2513274E+01    0.2827433E+01    0.3141593E+01    0.3455752E+01    0.3769911E+01    0.4084071E+01
  0.4398230E+01    0.4712389E+01    0.5026548E+01    0.5340708E+01    0.5654867E+01    0.5969026E+01    0.6283185E+01    0.0000000E+00    0.3141593E+00    0.6283185E+00
  0.9424778E+00    0.1256637E+01    0.1570796E+01    0.1884956E+01    0.2199115E+01    0.2513274E+01    0.2827433E+01    0.3141593E+01    0.3455752E+01    0.3769911E+01
  0.4084071E+01    0.4398230E+01    0.4712389E+01    0.5026548E+01    0.5340708E+01    0.5654867E+01    0.5969026E+01    0.6283185E+01    0.0000000E+00    0.3141593E+00
  0.6283185E+00    0.9424778E+00    0.1256637E+01    0.1570796E+01    0.1884956E+01    0.2199115E+01    0.2513274E+01    0.2827433E+01    0.3141593E+01    0.3455752E+01
  0.3769911E+01    0.4084071E+01    0.4398230E+01    0.4712389E+01    0.5026548E+01    0.5340708E+01    0.5654867E+01    0.5969026E+01    0.6283185E+01    0.0000000E+00
  0.3141593E+00    0.6283185E+00    0.9424778E+00    0.1256637E+01    0.1570796E+01    0.1884956E+01    0.2199115E+01    0.2513274E+01    0.2827433E+01    0.3141593E+01
  0.3455752E+01    0.3769911E+01    0.4084071E+01    0.4398230E+01    0.4712389E+01    0.5026548E+01    0.5340708E+01    0.5654867E+01    0.5969026E+01    0.6283185E+01
  0.0000000E+00    0.3141593E+00    0.6283185E+00    0.9424778E+00    0.1256637E+01    0.1570796E+01    0.1884956E+01    0.2199115E+01    0.2513274E+01    0.2827433E+01
  0.3141593E+01    0.3455752E+01    0.3769911E+01    0.4084071E+01    0.4398230E+01    0.4712389E+01    0.5026548E+01    0.5340708E+01    0.5654867E+01    0.5969026E+01
  0.6283185E+01    0.0000000E+00    0.0000000E+00    0.0000000E+00    0.0000000E+00    0.0000000E+00    0.0000000E+00    0.0000000E+00    0.0000000E+00    0.0000000E+00
  0.0000000E+00    0.0000000E+00    0.0000000E+00    0.0000000E+00    0.0000000E+00    0.0000000E+00    0.0000000E+00    0.0000000E+00    0.0000000E+00    0.0000000E+00
  0.0000000E+00    0.0000000E+00    0.3141593E+00    0.3141593E+00    0.3141593E+00    0.3141593E+00    0.3141593E+00    0.3141593E+00    0.3141593E+00    0.3141593E+00
  0.3141593E+00    0.3141593E+00    0.3141593E+00    0.3141593E+00    0.3141593E+00    0.3141593E+00    0.3141593E+00    0.3141593E+00    0.3141593E+00    0.3141593E+00
  0.3141593E+00    0.3141593E+00    0.3141593E+00    0.6283185E+00    0.6283185E+00    0.6283185E+00    0.6283185E+00    0.6283185E+00    0.6283185E+00    0.6283185E+00
  0.6283185E+00    0.6283185E+00    0.6283185E+00    0.6283185E+00    0.6283185E+00    0.6283185E+00    0.6283185E+00    0.6283185E+00    0.6283185E+00    0.6283185E+00
  0.6283185E+00    0.6283185E+00    0.6283185E+00    0.6283185E+00    0.9424778E+00    0.9424778E+00    0.9424778E+00    0.9424778E+00    0.9424778E+00    0.9424778E+00
  0.9424778E+00    0.9424778E+00    0.9424778E+00    0.9424778E+00    0.9424778E+00    0.9424778E+00    0.9424778E+00    0.9424778E+00    0.9424778E+00    0.9424778E+00
  0.9424778E+00    0.9424778E+00    0.9424778E+00    0.9424778E+00    0.9424778E+00    0.1256637E+01    0.1256637E+01    0.1256637E+01    0.1256637E+01    0.1256637E+01
  0.1256637E+01    0.1256637E+01    0.1256637E+01    0.1256637E+01    0.1256637E+01    0.1256637E+01    0.1256637E+01    0.1256637E+01    0.1256637E+01    0.1256637E+01
  0.1256637E+01    0.1256637E+01    0.1256637E+01    0.1256637E+01    0.1256637E+01    0.1256637E+01    0.1570796E+01    0.1570796E+01    0.1570796E+01    0.1570796E+01
  0.1570796E+01    0.1570796E+01    0.1570796E+01    0.1570796E+01    0.1570796E+01    0.1570796E+01    0.1570796E+01    0.1570796E+01    0.1570796E+01    0.1570796E+01
  0.1570796E+01    0.1570796E+01    0.1570796E+01    0.1570796E+01    0.1570796E+01    0.1570796E+01    0.1570796E+01    0.1884956E+01    0.1884956E+01    0.1884956E+01
  0.1884956E+01    0.1884956E+01    0.1884956E+01    0.1884956E+01    0.1884956E+01    0.1884956E+01    0.1884956E+01    0.1884956E+01    0.1884956E+01    0.1884956E+01
  0.1884956E+01    0.1884956E+01    0.1884956E+01    0.1884956E+01    0.1884956E+01    0.1884956E+01    0.1884956E+01    0.1884956E+01    0.2199115E+01    0.2199115E+01
  0.2199115E+01    0.2199115E+01    0.2199115E+01    0.2199115E+01    0.2199115E+01    0.2199115E+01    0.2199115E+01    0.2199115E+01    0.2199115E+01    0.2199115E+01
  0.2199115E+01    0.2199115E+01    0.2199115E+01    0.2199115E+01    0.2199115E+01    0.2199115E+01    0.2199115E+01    0.2199115E+01    0.2199115E+01    0.2513274E+01
  0.2513274E+01    0.2513274E+01    0.2513274E+01    0.2513274E+01    0.2513274E+01    0.2513274E+01    0.2513274E+01    0.2513274E+01    0.2513274E+01    0.2513274E+01
  0.2513274E+01    0.2513274E+01    0.2513274E+01    0.2513274E+01    0.2513274E+01    0.2513274E+01    0.2513274E+01    0.2513274E+01    0.2513274E+01    0.2513274E+01
  0.2827433E+01    0.2827433E+01    0.2827433E+01    0.2827433E+01    0.2827433E+01    0.2827433E+01    0.2827433E+01    0.2827433E+01    0.2827433E+01    0.2827433E+01
  0.2827433E+01    0.2827433E+01    0.2827433E+01    0.2827433E+01    0.2827433E+01    0.2827433E+01    0.2827433E+01    0.2827433E+01    0.2827433E+01    0.2827433E+01
  0.2827433E+01    0.3141593E+01    0.3141593E+01    0.3141593E+01    0.3141593E+01    0.3141593E+01    0.3141593E+01    0.3141593E+01    0.3141593E+01    0.3141593E+01
  0.3141593E+01    0.3141593E+01    0.3141593E+01    0.3141593E+01    0.3141593E+01    0.3141593E+01    0.3141593E+01    0.3141593E+01    0.3141593E+01    0.3141593E+01
  0.3141593E+01    0.3141593E+01    0.3455752E+01    0.3455752E+01    0.3455752E+01    0.3455752E+01    0.3455752E+01    0.3455752E+01    0.3455752E+01    0.3455752E+01
  0.3455752E+01    0.3455752E+01    0.3455752E+01    0.3455752E+01    0.3455752E+01    0.3455752E+01    0.3455752E+01    0.3455752E+01    0.3455752E+01    0.3455752E+01
  0.3455752E+01    0.3455752E+01    0.3455752E+01    0.3769911E+01    0.3769911E+01    0.3769911E+01    0.3769911E+01    0.3769911E+01    0.3769911E+01    0.3769911E+01
  0.3769911E+01    0.3769911E+01    0.3769911E+01    0.3769911E+01    0.3769911E+01    0.3769911E+01    0.3769911E+01    0.3769911E+01    0.3769911E+01    0.3769911E+01
  0.3769911E+01    0.3769911E+01    0.3769911E+01    0.3769911E+01    0.4084071E+01    0.4084071E+01    0.4084071E+01    0.4084071E+01    0.4084071E+01    0.4084071E+01
  0.4084071E+01    0.4084071E+01    0.4084071E+01    0.4084071E+01    0.4084071E+01    0.4084071E+01    0.4084071E+01    0.4084071E+01    0.4084071E+01    0.4084071E+01
  0.4084071E+01    0.4084071E+01    0.4084071E+01    0.4084071E+01    0.4084071E+01    0.4398230E+01    0.4398230E+01    0.4398230E+01    0.4398230E+01    0.4398230E+01
  0.4398230E+01    0.4398230E+01    0.4398230E+01    0.4398230E+01    0.4398230E+01    0.4398230E+01    0.4398230E+01    0.4398230E+01    0.4398230E+01    0.4398230E+01
  0.4398230E+01    0.4398230E+01    0.4398230E+01    0.4398230E+01    0.4398230E+01    0.4398230E+01    0.4712389E+01    0.4712389E+01    0.4712389E+01    0.4712389E+01
  0.4712389E+01    0.4712389E+01    0.4712389E+01    0.4712389E+01    0.4712389E+01    0.4712389E+01    0.4712389E+01    0.4712389E+01    0.4712389E+01    0.4712389E+01
  0.4712389E+01    0.4712389E+01    0.4712389E+01    0.4712389E+01    0.4712389E+01    0.4712389E+01    0.4712389E+01    0.5026548E+01    0.5026548E+01    0.5026548E+01
  0.5026548E+01    0.5026548E+01    0.5026548E+01    0.5026548E+01    0.5026548E+01    0.5026548E+01    0.5026548E+01    0.5026548E+01    0.5026548E+01    0.5026548E+01
  0.5026548E+01    0.5026548E+01    0.5026548E+01    0.5026548E+01    0.5026548E+01    0.5026548E+01    0.5026548E+01    0.5026548E+01    0.5340708E+01    0.5340708E+01
  0.5340708E+01    0.5340708E+01    0.5340708E+01    0.5340708E+01    0.5340708E+01    0.5340708E+01    0.5340708E+01    0.5340708E+01    0.5340708E+01    0.5340708E+01
  0.5340708E+01    0.5340708E+01    0.5340708E+01    0.5340708E+01    0.5340708E+01    0.5340708E+01    0.5340708E+01    0.5340708E+01    0.5340708E+01    0.5654867E+01
  0.5654867E+01    0.5654867E+01    0.5654867E+01    0.5654867E+01    0.5654867E+01    0.5654867E+01    0.5654867E+01    0.5654867E+01    0.5654867E+01    0.5654867E+01
  0.5654867E+01    0.5654867E+01    0.5654867E+01    0.5654867E+01    0.5654867E+01    0.5654867E+01    0.5654867E+01    0.5654867E+01    0.5654867E+01    0.5654867E+01
  0.5969026E+01    0.5969026E+01    0.5969026E+01    0.5969026E+01    0.5969026E+01    0.5969026E+01    0.5969026E+01    0.5969026E+01    0.5969026E+01    0.5969026E+01
  0.5969026E+01    0.5969026E+01    0.5969026E+01    0.5969026E+01    0.5969026E+01    0.5969026E+01    0.5969026E+01    0.5969026E+01    0.5969026E+01    0.5969026E+01
  0.5969026E+01    0.6283185E+01    0.6283185E+01    0.6283185E+01    0.6283185E+01    0.6283185E+01    0.6283185E+01    0.6283185E+01    0.6283185E+01    0.6283185E+01
  0.6283185E+01    0.6283185E+01    0.6283185E+01    0.6283185E+01    0.6283185E+01    0.6283185E+01    0.6283185E+01    0.6283185E+01    0.6283185E+01    0.6283185E+01
  0.6283185E+01    0.6283185E+01   -0.1026102E+00   -0.9256031E-01   -0.7344701E-01   -0.4714040E-01   -0.1621472E-01    0.1630480E-01    0.4723923E-01    0.7356560E-01
  0.9270088E-01    0.1026371E+00    0.1025243E+00    0.9250029E-01    0.7341492E-01    0.4712774E-01    0.1621714E-01   -0.1628584E-01   -0.4720040E-01   -0.7349883E-01
 -0.9260364E-01   -0.1026474E+00   -0.2978246E+00   -0.2686655E+00   -0.2132043E+00   -0.1368689E+00   -0.4713004E-01    0.4723042E-01    0.1369784E+00    0.2133270E+00
  0.2687829E+00    0.2978585E+00    0.2977750E+00    0.2686117E+00    0.2131688E+00    0.1368531E+00    0.4713270E-01   -0.4720767E-01   -0.1369327E+00   -0.2132578E+00
 -0.2687099E+00   -0.2978618E+00   -0.4638844E+00   -0.4184706E+00   -0.3320908E+00   -0.2131993E+00   -0.7343284E-01    0.7352859E-01    0.2132995E+00    0.3321936E+00
  0.4185580E+00    0.4639187E+00    0.4638661E+00    0.4184378E+00    0.3320641E+00    0.2131861E+00    0.7343515E-01   -0.7350916E-01   -0.2132624E+00   -0.3321437E+00
 -0.4185149E+00   -0.4639211E+00   -0.5845350E+00   -0.5273117E+00   -0.4184685E+00   -0.2686590E+00   -0.9254678E-01    0.9262925E-01    0.2687419E+00    0.4185480E+00
  0.5273755E+00    0.5845657E+00    0.5845336E+00    0.5272963E+00    0.4184527E+00    0.2686502E+00    0.9254827E-01   -0.9261619E-01   -0.2687181E+00   -0.4185191E+00
 -0.5273549E+00   -0.5845719E+00   -0.6479665E+00   -0.5845343E+00   -0.4638816E+00   -0.2978181E+00   -0.1025990E+00    0.1026663E+00    0.2978839E+00    0.4639417E+00
  0.5845812E+00    0.6479919E+00    0.6479720E+00    0.5845295E+00    0.4638742E+00    0.2978134E+00    0.1025996E+00   -0.1026593E+00   -0.2978715E+00   -0.4639285E+00
 -0.5845749E+00   -0.6480011E+00   -0.6479669E+00   -0.5845357E+00   -0.4638840E+00   -0.2978219E+00   -0.1026045E+00    0.1026586E+00    0.2978737E+00    0.4639304E+00
  0.5845721E+00    0.6479892E+00    0.6479765E+00    0.5845375E+00    0.4638823E+00    0.2978200E+00    0.1026046E+00   -0.1026558E+00   -0.2978693E+00   -0.4639270E+00
 -0.5845739E+00   -0.6480001E+00   -0.5845381E+00   -0.5273166E+00   -0.4184758E+00   -0.2686698E+00   -0.9256262E-01    0.9260651E-01    0.2687114E+00    0.4185128E+00
  0.5273461E+00    0.5845582E+00    0.5845495E+00    0.5273219E+00    0.4184774E+00    0.2686699E+00    0.9256255E-01   -0.9260639E-01   -0.2687116E+00   -0.4185152E+00
 -0.5273531E+00   -0.5845717E+00   -0.4638902E+00   -0.4184785E+00   -0.3321020E+00   -0.2132156E+00   -0.7345687E-01    0.7349335E-01    0.2132502E+00    0.3321326E+00
  0.4185032E+00    0.4639074E+00    0.4639011E+00    0.4184853E+00    0.3321056E+00    0.2132171E+00    0.7345692E-01   -0.7349448E-01   -0.2132529E+00   -0.3321380E+00
 -0.4185124E+00   -0.4639215E+00   -0.2978296E+00   -0.2686740E+00   -0.2132172E+00   -0.1368879E+00   -0.4715781E-01    0.4718929E-01    0.1369177E+00    0.2132439E+00
  0.2686963E+00    0.2978467E+00    0.2978419E+00    0.2686823E+00    0.2132223E+00    0.1368904E+00    0.4715831E-01   -0.4719082E-01   -0.1369215E+00   -0.2132505E+00
 -0.2687062E+00   -0.2978599E+00   -0.1026141E+00   -0.9256807E-01   -0.7345924E-01   -0.4715835E-01   -0.1624017E-01    0.1626845E-01    0.4718522E-01    0.7348357E-01
  0.9258888E-01    0.1026311E+00    0.1026272E+00    0.9257732E-01    0.7346533E-01    0.4716186E-01    0.1624121E-01   -0.1626991E-01   -0.4718929E-01   -0.7349073E-01
 -0.9259962E-01   -0.1026457E+00    0.1026457E+00    0.9260018E-01    0.7349121E-01    0.4718937E-01    0.1626919E-01   -0.1624279E-01   -0.4716417E-01   -0.7346844E-01
 -0.9258085E-01   -0.1026306E+00   -0.1026340E+00   -0.9259097E-01   -0.7348448E-01   -0.4718519E-01   -0.1626760E-01    0.1624175E-01    0.4716023E-01    0.7346126E-01
  0.9257023E-01    0.1026163E+00    0.2978622E+00    0.2687068E+00    0.2132499E+00    0.1369198E+00    0.4718794E-01   -0.4716225E-01   -0.1368953E+00   -0.2132276E+00
 -0.2686874E+00   -0.2978460E+00   -0.2978492E+00   -0.2686968E+00   -0.2132426E+00   -0.1369150E+00   -0.4718573E-01    0.4716165E-01    0.1368917E+00    0.2132209E+00
  0.2686774E+00    0.2978334E+00    0.4639227E+00    0.4185119E+00    0.3321359E+00    0.2132494E+00    0.7348942E-01   -0.7346357E-01   -0.2132248E+00   -0.3321136E+00
 -0.4184926E+00   -0.4639063E+00   -0.4639093E+00   -0.4185018E+00   -0.3321284E+00   -0.2132442E+00   -0.7348678E-01    0.7346336E-01    0.2132216E+00    0.3321069E+00
  0.4184820E+00    0.4638917E+00    0.5845702E+00    0.5273510E+00    0.4185118E+00    0.2687064E+00    0.9259894E-01   -0.9257214E-01   -0.2686811E+00   -0.4184893E+00
 -0.5273325E+00   -0.5845563E+00   -0.5845596E+00   -0.5273419E+00   -0.4185044E+00   -0.2687011E+00   -0.9259605E-01    0.9257233E-01    0.2686780E+00    0.4184825E+00
  0.5273218E+00    0.5845417E+00    0.6480014E+00    0.5845724E+00    0.4639229E+00    0.2978625E+00    0.1026461E+00   -0.1026174E+00   -0.2978357E+00   -0.4638993E+00
 -0.5845530E+00   -0.6479863E+00   -0.6479898E+00   -0.5845634E+00   -0.4639159E+00   -0.2978574E+00   -0.1026431E+00    0.1026178E+00    0.2978328E+00    0.4638927E+00
  0.5845426E+00    0.6479730E+00    0.6480019E+00    0.5845730E+00    0.4639239E+00    0.2978638E+00    0.1026477E+00   -0.1026159E+00   -0.2978345E+00   -0.4638988E+00
 -0.5845534E+00   -0.6479874E+00   -0.6479914E+00   -0.5845653E+00   -0.4639178E+00   -0.2978591E+00   -0.1026447E+00    0.1026164E+00    0.2978316E+00    0.4638915E+00
  0.5845411E+00    0.6479701E+00    0.5845697E+00    0.5273522E+00    0.4185144E+00    0.2687103E+00    0.9260368E-01   -0.9256729E-01   -0.2686771E+00   -0.4184873E+00
 -0.5273332E+00   -0.5845598E+00   -0.5845648E+00   -0.5273479E+00   -0.4185103E+00   -0.2687066E+00   -0.9260093E-01    0.9256811E-01    0.2686745E+00    0.4184797E+00
  0.5273198E+00    0.5845406E+00    0.4639226E+00    0.4185143E+00    0.3321406E+00    0.2132562E+00    0.7349792E-01   -0.7345441E-01   -0.2132168E+00   -0.3321088E+00
 -0.4184928E+00   -0.4639124E+00   -0.4639194E+00   -0.4185129E+00   -0.3321392E+00   -0.2132539E+00   -0.7349526E-01    0.7345604E-01    0.2132156E+00    0.3321024E+00
  0.4184795E+00    0.4638931E+00    0.2978637E+00    0.2687108E+00    0.2132569E+00    0.1369300E+00    0.4720127E-01   -0.4714693E-01   -0.1368799E+00   -0.2132151E+00
 -0.2686826E+00   -0.2978542E+00   -0.2978672E+00   -0.2687166E+00   -0.2132606E+00   -0.1369301E+00   -0.4719870E-01    0.4715095E-01    0.1368835E+00    0.2132138E+00
  0.2686714E+00    0.2978284E+00    0.1026456E+00    0.9260501E-01    0.7350047E-01    0.4720329E-01    0.1628843E-01   -0.1621829E-01   -0.4713468E-01   -0.7343557E-01
 -0.9255358E-01   -0.1026377E+00   -0.1026716E+00   -0.9262808E-01   -0.7351450E-01   -0.4720797E-01   -0.1628571E-01    0.1622763E-01    0.4715025E-01    0.7345296E-01
  0.9256350E-01    0.1026125E+00    0.1026479E+00    0.2978636E+00    0.4639256E+00    0.5845783E+00    0.6480108E+00    0.6480146E+00    0.5845823E+00    0.4639016E+00
  0.2977307E+00    0.1021859E+00   -0.1027703E+00   -0.2978753E+00   -0.4638987E+00   -0.5845405E+00   -0.6479655E+00   -0.6479647E+00   -0.5845388E+00   -0.4638864E+00
 -0.2978254E+00   -0.1026148E+00    0.9259812E-01    0.2687044E+00    0.4185104E+00    0.5273515E+00    0.5845731E+00    0.5845724E+00    0.5273422E+00    0.4184668E+00
  0.2685742E+00    0.9233067E-01   -0.9271844E-01   -0.2687400E+00   -0.4185056E+00   -0.5273306E+00   -0.5845446E+00   -0.5845421E+00   -0.5273216E+00   -0.4184802E+00
 -0.2686745E+00   -0.9256989E-01    0.7348568E-01    0.2132440E+00    0.3321299E+00    0.4185052E+00    0.4639141E+00    0.4639095E+00    0.4184862E+00    0.3320803E+00
  0.2131406E+00    0.7332801E-01   -0.7357943E-01   -0.2132875E+00   -0.3321414E+00   -0.4185009E+00   -0.4639030E+00   -0.4638989E+00   -0.4184864E+00   -0.3321090E+00
 -0.2132222E+00   -0.7346394E-01    0.4718154E-01    0.1369113E+00    0.2132396E+00    0.2686944E+00    0.2978463E+00    0.2978399E+00    0.2686722E+00    0.2131941E+00
  0.1368350E+00    0.4708267E-01   -0.4724911E-01   -0.1369522E+00   -0.2132595E+00   -0.2687021E+00   -0.2978490E+00   -0.2978441E+00   -0.2686859E+00   -0.2132273E+00
 -0.1368968E+00   -0.4716603E-01    0.1625969E-01    0.4717771E-01    0.7347736E-01    0.9258375E-01    0.1026258E+00    0.1026192E+00    0.9256285E-01    0.7343962E-01
  0.4712252E-01    0.1619439E-01   -0.1630867E-01   -0.4721285E-01   -0.7349984E-01   -0.9259820E-01   -0.1026372E+00   -0.1026324E+00   -0.9258319E-01   -0.7347216E-01
 -0.4716954E-01   -0.1624996E-01   -0.1625304E-01   -0.4717300E-01   -0.7347624E-01   -0.9258827E-01   -0.1026387E+00   -0.1026446E+00   -0.9260603E-01   -0.7350601E-01
 -0.4721302E-01   -0.1629781E-01    0.1621620E-01    0.4714375E-01    0.7345422E-01    0.9257092E-01    0.1026229E+00    0.1026268E+00    0.9258328E-01    0.7347602E-01
  0.4717574E-01    0.1625723E-01   -0.4717348E-01   -0.1369051E+00   -0.2132366E+00   -0.2686962E+00   -0.2978553E+00   -0.2978601E+00   -0.2687105E+00   -0.2132595E+00
 -0.1369346E+00   -0.4720545E-01    0.4714540E-01    0.1368812E+00    0.2132166E+00    0.2686786E+00    0.2978380E+00    0.2978411E+00    0.2686879E+00    0.2132326E+00
  0.1369040E+00    0.4717399E-01   -0.7347604E-01   -0.2132355E+00   -0.3321233E+00   -0.4185017E+00   -0.4639155E+00   -0.4639193E+00   -0.4185128E+00   -0.3321408E+00
 -0.2132572E+00   -0.7349889E-01    0.7345394E-01    0.2132161E+00    0.3321060E+00    0.4184853E+00    0.4638987E+00    0.4639009E+00    0.4184919E+00    0.3321171E+00
  0.2132320E+00    0.7347397E-01   -0.9258618E-01   -0.2686928E+00   -0.4184993E+00   -0.5273414E+00   -0.5845646E+00   -0.5845675E+00   -0.5273498E+00   -0.4185124E+00
 -0.2687086E+00   -0.9260219E-01    0.9256838E-01    0.2686771E+00    0.4184848E+00    0.5273270E+00    0.5845494E+00    0.5845508E+00    0.5273312E+00    0.4184920E+00
  0.2686873E+00    0.9258158E-01   -0.1026324E+00   -0.2978481E+00   -0.4639096E+00   -0.5845613E+00   -0.6479928E+00   -0.6479950E+00   -0.5845675E+00   -0.4639191E+00
 -0.2978595E+00   -0.1026438E+00    0.1026190E+00    0.2978360E+00    0.4638979E+00    0.5845493E+00    0.6479798E+00    0.6479806E+00    0.5845517E+00    0.4639019E+00
  0.2978419E+00    0.1026271E+00   -0.1026327E+00   -0.2978481E+00   -0.4639093E+00   -0.5845605E+00   -0.6479914E+00   -0.6479929E+00   -0.5845648E+00   -0.4639158E+00
 -0.2978558E+00   -0.1026399E+00    0.1026226E+00    0.2978391E+00    0.4639005E+00    0.5845511E+00    0.6479811E+00    0.6479814E+00    0.5845519E+00    0.4639020E+00
  0.2978419E+00    0.1026272E+00   -0.9258708E-01   -0.2686930E+00   -0.4184986E+00   -0.5273392E+00   -0.5845607E+00   -0.5845615E+00   -0.5273417E+00   -0.4185022E+00
 -0.2686971E+00   -0.9259028E-01    0.9257956E-01    0.2686867E+00    0.4184923E+00    0.5273324E+00    0.5845530E+00    0.5845528E+00    0.5273320E+00    0.4184919E+00
  0.2686866E+00    0.9258057E-01   -0.7347766E-01   -0.2132362E+00   -0.3321225E+00   -0.4184986E+00   -0.4639094E+00   -0.4639096E+00   -0.4184993E+00   -0.3321234E+00
 -0.2132371E+00   -0.7347793E-01    0.7347363E-01    0.2132327E+00    0.3321187E+00    0.4184944E+00    0.4639044E+00    0.4639038E+00    0.4184929E+00    0.3321165E+00
  0.2132302E+00    0.7347159E-01   -0.4717670E-01   -0.1369070E+00   -0.2132363E+00   -0.2686927E+00   -0.2978477E+00   -0.2978472E+00   -0.2686913E+00   -0.2132342E+00
 -0.1369042E+00   -0.4717314E-01    0.4717530E-01    0.1369058E+00    0.2132349E+00    0.2686908E+00    0.2978453E+00    0.2978445E+00    0.2686884E+00    0.2132311E+00
  0.1369014E+00    0.4717100E-01   -0.1625863E-01   -0.4717700E-01   -0.7347758E-01   -0.9258571E-01   -0.1026308E+00   -0.1026295E+00   -0.9258192E-01   -0.7347175E-01
 -0.4716967E-01   -0.1625051E-01    0.1625935E-01    0.4717774E-01    0.7347801E-01    0.9258589E-01    0.1026310E+00    0.1026297E+00    0.9258249E-01    0.7347269E-01
  0.4717070E-01    0.1625144E-01    0.1625147E-01    0.4717090E-01    0.7347325E-01    0.9258393E-01    0.1026323E+00    0.1026347E+00    0.9259081E-01    0.7348369E-01
  0.4718323E-01    0.1626393E-01   -0.1624737E-01   -0.4716808E-01   -0.7347118E-01   -0.9258193E-01   -0.1026299E+00   -0.1026314E+00   -0.9258634E-01   -0.7347834E-01
 -0.4717776E-01   -0.1625922E-01    0.4716892E-01    0.1369000E+00    0.2132312E+00    0.2686903E+00    0.2978489E+00    0.2978527E+00    0.2687013E+00    0.2132478E+00
  0.1369197E+00    0.4718832E-01   -0.4716258E-01   -0.1368960E+00   -0.2132281E+00   -0.2686873E+00   -0.2978447E+00   -0.2978465E+00   -0.2686927E+00   -0.2132371E+00
 -0.1369084E+00   -0.4717827E-01    0.7346748E-01    0.2132272E+00    0.3321154E+00    0.4184945E+00    0.4639096E+00    0.4639153E+00    0.4185109E+00    0.3321403E+00
  0.2132571E+00    0.7349701E-01   -0.7345927E-01   -0.2132226E+00   -0.3321128E+00   -0.4184917E+00   -0.4639045E+00   -0.4639070E+00   -0.4184982E+00   -0.3321235E+00
 -0.2132392E+00   -0.7348186E-01    0.9257466E-01    0.2686814E+00    0.4184888E+00    0.5273325E+00    0.5845588E+00    0.5845667E+00    0.5273549E+00    0.4185237E+00
  0.2687252E+00    0.9262014E-01   -0.9256211E-01   -0.2686769E+00   -0.4184882E+00   -0.5273317E+00   -0.5845545E+00   -0.5845580E+00   -0.5273391E+00   -0.4184997E+00
 -0.2686977E+00   -0.9259360E-01    0.1026169E+00    0.2978328E+00    0.4638960E+00    0.5845496E+00    0.6479855E+00    0.6479950E+00    0.5845760E+00    0.4639388E+00
  0.2978957E+00    0.1027057E+00   -0.1026007E+00   -0.2978326E+00   -0.4639018E+00   -0.5845551E+00   -0.6479849E+00   -0.6479903E+00   -0.5845619E+00   -0.4639100E+00
 -0.2978552E+00   -0.1026419E+00   -0.1075455E+00   -0.8880887E-01   -0.5845758E-01   -0.2809992E-01   -0.9323692E-02   -0.9384722E-02   -0.2824992E-01   -0.5873726E-01
 -0.8938992E-01   -0.1089778E+00   -0.1081148E+00   -0.8916257E-01   -0.5866657E-01   -0.2814339E-01   -0.9357610E-02   -0.9345253E-02   -0.2802511E-01   -0.5845656E-01
 -0.8890343E-01   -0.1075360E+00   -0.8879751E-01   -0.7004433E-01   -0.3967911E-01   -0.9316950E-02    0.9445381E-02    0.9386269E-02   -0.9490984E-02   -0.4000279E-01
 -0.7058178E-01   -0.8957990E-01   -0.8933787E-01   -0.7041581E-01   -0.3992982E-01   -0.9410987E-02    0.9415351E-02    0.9408387E-02   -0.9290807E-02   -0.3968554E-01
 -0.7015057E-01   -0.8881912E-01   -0.5844914E-01   -0.3967842E-01   -0.9296945E-02    0.2106118E-01    0.3982395E-01    0.3977692E-01    0.2089498E-01   -0.9591903E-02
 -0.4010031E-01   -0.5897929E-01   -0.5887815E-01   -0.4000133E-01   -0.9558278E-02    0.2095664E-01    0.3980946E-01    0.3977789E-01    0.2106997E-01   -0.9290874E-02
 -0.3978603E-01   -0.5848907E-01   -0.2806924E-01   -0.9298126E-02    0.2107652E-01    0.5144090E-01    0.7021805E-01    0.7016331E-01    0.5129664E-01    0.2084327E-01
 -0.9648344E-02   -0.2848571E-01   -0.2841289E-01   -0.9589591E-02    0.2084147E-01    0.5136491E-01    0.7019122E-01    0.7016153E-01    0.5147426E-01    0.2108202E-01