 TITLE = "NAVIER-STOKES OUTPUT"
 VARIABLES = "X", "Y", "U", "V", "P", "Pex", "Vor"
 ZONE I =   21, J =   21, DATAPACKING = BLOCK, VARLOCATION=(3=CELLCENTERED, 4=CELLCENTERED,5=CELLCENTERED,6=CELLCENTERED, 7=CELLCENTERED)
  0.0000000E+00    0.3141593E+00    0.6283185E+00    0.9424778E+00    0.1256637E+01    0.1570796E+01    0.1884956E+01    0.2199115E+01    0.2513274E+01    0.2827433E+01
  0.3141593E+01    0.3455752E+01    0.3769911E+01    0.4084071E+01    0.4398230E+01    0.4712389E+01    0.5026548E+01    0.5340708E+01    0.5654867E+01    0.5969026E+01
  0.6283185E+01    0.0000000E+00    0.3141593E+00    0.6283185E+00    0.9424778E+00    0.1256637E+01    0.1570796E+01    0.1884956E+01    0.2199115E+01    0.2513274E+01
  0.2827433E+01    0.3141593E+01    0.3455752E+01    0.3769911E+01    0.4084071E+01    0.4398230E+01    0.4712389E+01    0.5026548E+01    0.5340708E+01    0.5654867E+01
  0.5969026E+01    0.6283185E+01    0.0000000E+00    0.3141593E+00    0.6283185E+00    0.9424778E+00    0.1256637E+01    0.1570796E+01    0.1884956E+01    0.2199115E+01
  0.2513274E+01    0.2827433E+01    0.3141593E+01    0.3455752E+01    0.3769911E+01    0.4084071E+01    0.4398230E+01    0.4712389E+01    0.5026548E+01    0.5340708E+01
  0.5654867E+01    0.5969026E+01    0.6283185E+01    0.0000000E+00    0.3141593E+00    0.6283185E+00    0.9424778E+00    0.1256637E+01    0.1570796E+01    0.1884956E+01
  0.2199115E+01    0.2513274E+01    0.2827433E+01    0.3141593E+01    0.3455752E+01    0.3769911E+01    0.4084071E+01    0.4398230E+01    0.4712389E+01    0.5026548E+01
  0.5340708E+01    0.5654867E+01    0.5969026E+01    0.6283185E+01    0.0000000E+00    0.3141593E+00    0.6283185E+00    0.9424778E+00    0.1256637E+01    0.1570796E+01
  0.1884956E+01    0.2199115E+01    0.2513274E+01    0.2827433E+01    0.3141593E+01    0.3455752E+01    0.3769911E+01    0.4084071E+01    0.4398230E+01    0.4712389E+01
  0.5026548E+01    0.5340708E+01    0.5654867E+01    0.5969026E+01    0.6283185E+01    0.0000000E+00    0.3141593E+00    0.6283185E+00    0.9424778E+00    0.1256637E+01
  0.1570796E+01    0.1884956E+01    0.2199115E+01    0.2513274E+01    0.2827433E+01    0.3141593E+01    0.3455752E+01    0.3769911E+01    0.4084071E+01    0.4398230E+01
  0.4712389E+01    0.5026548E+01    0.5340708E+01    0.5654867E+01    0.5969026E+01    0.6283185E+01    0.0000000E+00    0.3141593E+00    0.6283185E+00    0.9424778E+00
  0.1256637E+01    0.1570796E+01    0.1884956E+01    0.2199115E+01    0.2513274E+01    0.2827433E+01    0.3141593E+01    0.3455752E+01    0.3769911E+01    0.4084071E+01
  0.4398230E+01    0.4712389E+01    0.5026548E+01    0.5340708E+01    0.5654867E+01    0.5969026E+01    0.6283185E+01    0.0000000E+00    0.3141593E+00    0.6283185E+00
  0.9424778E+00    0.1256637E+01    0.1570796E+01    0.1884956E+01    0.2199115E+01    0.2513274E+01    0.2827433E+01    0.3141593E+01    0.3455752E+01    0.3769911E+01
  0.4084071E+01    0.4398230E+01    0.4712389E+01    0.5026548E+01    0.5340708E+01    0.5654867E+01    0.5969026E+01    0.6283185E+01    0.0000000E+00    0.3141593E+00
  0.6283185E+00    0.9424778E+00    0.1256637E+01    0.1570796E+01    0.1884956E+01    0.2199115E+01    0.2513274E+01    0.2827433E+01    0.3141593E+01    0.3455752E+01
  0.3769911E+01    0.4084071E+01    0.4398230E+01    0.4712389E+01    0.5026548E+01    0.5340708E+01    0.5654867E+01    0.5969026E+01    0.6283185E+01    0.0000000E+00
  0.3141593E+00    0.6283185E+00    0.9424778E+00    0.1256637E+01    0.1570796E+01    0.1884956E+01    0.2199115E+01    0.2513274E+01    0.2827433E+01    0.3141593E+01
  0.3455752E+01    0.3769911E+01    0.4084071E+01    0.4398230E+01    0.4712389E+01    0.5026548E+01    0.5340708E+01    0.5654867E+01    0.5969026E+01    0.6283185E+01
  0.0000000E+00    0.3141593E+00    0.6283185E+00    0.9424778E+00    0.1256637E+01    0.1570796E+01    0.1884956E+01    0.2199115E+01    0.2513274E+01    0.2827433E+01
  0.3141593E+01    0.3455752E+01    0.3769911E+01    0.4084071E+01    0.4398230E+01    0.4712389E+01    0.5026548E+01    0.5340708E+01    0.5654867E+01    0.5969026E+01
  0.6283185E+01    0.0000000E+00    0.3141593E+00    0.6283185E+00    0.9424778E+00    0.1256637E+01    0.1570796E+01    0.1884956E+01    0.2199115E+01    0.2513274E+01
  0.2827433E+01    0.3141593E+01    0.3455752E+01    0.3769911E+01    0.4084071E+01    0.4398230E+01    0.4712389E+01    0.5026548E+01    0.5340708E+01    0.5654867E+01
  0.5969026E+01    0.6283185E+01    0.0000000E+00    0.3141593E+00    0.6283185E+00    0.9424778E+00    0.1256637E+01    0.1570796E+01    0.1884956E+01    0.2199115E+01
  0.2513274E+01    0.2827433E+01    0.3141593E+01    0.3455752E+01    0.3769911E+01    0.4084071E+01    0.4398230E+01    0.4712389E+01    0.5026548E+01    0.5340708E+01
  0.5654867E+01    0.5969026E+01    0.6283185E+01    0.0000000E+00    0.3141593E+00    0.6283185E+00    0.9424778E+00    0.1256637E+01    0.1570796E+01    0.1884956E+01
  0.2199115E+01    0.2513274E+01    0.2827433E+01    0.3141593E+01    0.3455752E+01    0.3769911E+01    0.4084071E+01    0.4398230E+01    0.4712389E+01    0.5026548E+01
  0.5340708E+01    0.5654867E+01    0.5969026E+01    0.6283185E+01    0.0000000E+00    0.3141593E+00    0.6283185E+00    0.9424778E+00    0.1256637E+01    0.1570796E+01
  0.1884956E+01    0.2199115E+01    0.2513274E+01    0.2827433E+01    0.3141593E+01    0.3455752E+01    0.3769911E+01    0.4084071E+01    0.4398230E+01    0.4712389E+01
  0.5026548E+01    0.5340708E+01    0.5654867E+01    0.5969026E+01    0.6283185E+01    0.0000000E+00    0.3141593E+00    0.6283185E+00    0.9424778E+00    0.1256637E+01
  0.1570796E+01    0.1884956E+01    0.2199115E+01    0.2513274E+01    0.2827433E+01    0.3141593E+01    0.3455752E+01    0.3769911E+01    0.4084071E+01    0.4398230E+01
  0.4712389E+01    0.5026548E+01    0.5340708E+01    0.5654867E+01    0.5969026E+01    0.6283185E+01    0.0000000E+00    0.3141593E+00    0.6283185E+00    0.9424778E+00
  0.1256637E+01    0.1570796E+01    0.1884956E+01    0.2199115E+01    0.2513274E+01    0.2827433E+01    0.3141593E+01    0.3455752E+01    0.3769911E+01    0.4084071E+01
  0.4398230E+01    0.4712389E+01    0.5026548E+01    0.5340708E+01    0.5654867E+01    0.5969026E+01    0.6283185E+01    0.0000000E+00    0.3141593E+00    0.6283185E+00
  0.9424778E+00    0.1256637E+01    0.1570796E+01    0.1884956E+01    0.2199115E+01    0.2513274E+01    0.2827433E+01    0.3141593E+01    0.3455752E+01    0.3769911E+01
  0.4084071E+01    0.4398230E+01    0.4712389E+01    0.5026548E+01    0.5340708E+01    0.5654867E+01    0.5969026E+01    0.6283185E+01    0.0000000E+00    0.3141593E+00
  0.6283185E+00    0.9424778E+00    0.1256637E+01    0.1570796E+01    0.1884956E+01    0.2199115E+01    0.2513274E+01    0.2827433E+01    0.3141593E+01    0.3455752E+01
  0.3769911E+01    0.4084071E+01    0.4398230E+01    0.4712389E+01    0.5026548E+01    0.5340708E+01    0.5654867E+01    0.5969026E+01    0.6283185E+01    0.0000000E+00
  0.3141593E+00    0.6283185E+00    0.9424778E+00    0.1256637E+01    0.1570796E+01    0.1884956E+01    0.2199115E+01    0.2513274E+01    0.2827433E+01    0.3141593E+01
  0.3455752E+01    0.3769911E+01    0.4084071E+01    0.4398230E+01    0.4712389E+01    0.5026548E+01    0.5340708E+01    0.5654867E+01    0.5969026E+01    0.6283185E+01
  0.0000000E+00    0.3141593E+00    0.6283185E+00    0.9424778E+00    0.1256637E+01    0.1570796E+01    0.1884956E+01    0.2199115E+01    0.2513274E+01    0.2827433E+01
  0.3141593E+01    0.3455752E+01    0.3769911E+01    0.4084071E+01    0.4398230E+01    0.4712389E+01    0.5026548E+01    0.5340708E+01    0.5654867E+01    0.5969026E+01
  0.6283185E+01    0.0000000E+00    0.0000000E+00    0.0000000E+00    0.0000000E+00    0.0000000E+00    0.0000000E+00    0.0000000E+00    0.0000000E+00    0.0000000E+00
  0.0000000E+00    0.0000000E+00    0.0000000E+00    0.0000000E+00    0.0000000E+00    0.0000000E+00    0.0000000E+00    0.0000000E+00    0.0000000E+00    0.0000000E+00
  0.0000000E+00    0.0000000E+00    0.3141593E+00    0.3141593E+00    0.3141593E+00    0.3141593E+00    0.3141593E+00    0.3141593E+00    0.3141593E+00    0.3141593E+00
  0.3141593E+00    0.3141593E+00    0.3141593E+00    0.3141593E+00    0.3141593E+00    0.3141593E+00    0.3141593E+00    0.3141593E+00    0.3141593E+00    0.3141593E+00
  0.3141593E+00    0.3141593E+00    0.3141593E+00    0.6283185E+00    0.6283185E+00    0.6283185E+00    0.6283185E+00    0.6283185E+00    0.6283185E+00    0.6283185E+00
  0.6283185E+00    0.6283185E+00    0.6283185E+00    0.6283185E+00    0.6283185E+00    0.6283185E+00    0.6283185E+00    0.6283185E+00    0.6283185E+00    0.6283185E+00
  0.6283185E+00    0.6283185E+00    0.6283185E+00    0.6283185E+00    0.9424778E+00    0.9424778E+00    0.9424778E+00    0.9424778E+00    0.9424778E+00    0.9424778E+00
  0.9424778E+00    0.9424778E+00    0.9424778E+00    0.9424778E+00    0.9424778E+00    0.9424778E+00    0.9424778E+00    0.9424778E+00    0.9424778E+00    0.9424778E+00
  0.9424778E+00    0.9424778E+00    0.9424778E+00    0.9424778E+00    0.9424778E+00    0.1256637E+01    0.1256637E+01    0.1256637E+01    0.1256637E+01    0.1256637E+01
  0.1256637E+01    0.1256637E+01    0.1256637E+01    0.1256637E+01    0.1256637E+01    0.1256637E+01    0.1256637E+01    0.1256637E+01    0.1256637E+01    0.1256637E+01
  0.1256637E+01    0.1256637E+01    0.1256637E+01    0.1256637E+01    0.1256637E+01    0.1256637E+01    0.1570796E+01    0.1570796E+01    0.1570796E+01    0.1570796E+01
  0.1570796E+01    0.1570796E+01    0.1570796E+01    0.1570796E+01    0.1570796E+01    0.1570796E+01    0.1570796E+01    0.1570796E+01    0.1570796E+01    0.1570796E+01
  0.1570796E+01    0.1570796E+01    0.1570796E+01    0.1570796E+01    0.1570796E+01    0.1570796E+01    0.1570796E+01    0.1884956E+01    0.1884956E+01    0.1884956E+01
  0.1884956E+01    0.1884956E+01    0.1884956E+01    0.1884956E+01    0.1884956E+01    0.1884956E+01    0.1884956E+01    0.1884956E+01    0.1884956E+01    0.1884956E+01
  0.1884956E+01    0.1884956E+01    0.1884956E+01    0.1884956E+01    0.1884956E+01    0.1884956E+01    0.1884956E+01    0.1884956E+01    0.2199115E+01    0.2199115E+01
  0.2199115E+01    0.2199115E+01    0.2199115E+01    0.2199115E+01    0.2199115E+01    0.2199115E+01    0.2199115E+01    0.2199115E+01    0.2199115E+01    0.2199115E+01
  0.2199115E+01    0.2199115E+01    0.2199115E+01    0.2199115E+01    0.2199115E+01    0.2199115E+01    0.2199115E+01    0.2199115E+01    0.2199115E+01    0.2513274E+01
  0.2513274E+01    0.2513274E+01    0.2513274E+01    0.2513274E+01    0.2513274E+01    0.2513274E+01    0.2513274E+01    0.2513274E+01    0.2513274E+01    0.2513274E+01
  0.2513274E+01    0.2513274E+01    0.2513274E+01    0.2513274E+01    0.2513274E+01    0.2513274E+01    0.2513274E+01    0.2513274E+01    0.2513274E+01    0.2513274E+01
  0.2827433E+01    0.2827433E+01    0.2827433E+01    0.2827433E+01    0.2827433E+01    0.2827433E+01    0.2827433E+01    0.2827433E+01    0.2827433E+01    0.2827433E+01
  0.2827433E+01    0.2827433E+01    0.2827433E+01    0.2827433E+01    0.2827433E+01    0.2827433E+01    0.2827433E+01    0.2827433E+01    0.2827433E+01    0.2827433E+01
  0.2827433E+01    0.3141593E+01    0.3141593E+01    0.3141593E+01    0.3141593E+01    0.3141593E+01    0.3141593E+01    0.3141593E+01    0.3141593E+01    0.3141593E+01
  0.3141593E+01    0.3141593E+01    0.3141593E+01    0.3141593E+01    0.3141593E+01    0.3141593E+01    0.3141593E+01    0.3141593E+01    0.3141593E+01    0.3141593E+01
  0.3141593E+01    0.3141593E+01    0.3455752E+01    0.3455752E+01    0.3455752E+01    0.3455752E+01    0.3455752E+01    0.3455752E+01    0.3455752E+01    0.3455752E+01
  0.3455752E+01    0.3455752E+01    0.3455752E+01    0.3455752E+01    0.3455752E+01    0.3455752E+01    0.3455752E+01    0.3455752E+01    0.3455752E+01    0.3455752E+01
  0.3455752E+01    0.3455752E+01    0.3455752E+01    0.3769911E+01    0.3769911E+01    0.3769911E+01    0.3769911E+01    0.3769911E+01    0.3769911E+01    0.3769911E+01
  0.3769911E+01    0.3769911E+01    0.3769911E+01    0.3769911E+01    0.3769911E+01    0.3769911E+01    0.3769911E+01    0.3769911E+01    0.3769911E+01    0.3769911E+01
  0.3769911E+01    0.3769911E+01    0.3769911E+01    0.3769911E+01    0.4084071E+01    0.4084071E+01    0.4084071E+01    0.4084071E+01    0.4084071E+01    0.4084071E+01
  0.4084071E+01    0.4084071E+01    0.4084071E+01    0.4084071E+01    0.4084071E+01    0.4084071E+01    0.4084071E+01    0.4084071E+01    0.4084071E+01    0.4084071E+01
  0.4084071E+01    0.4084071E+01    0.4084071E+01    0.4084071E+01    0.4084071E+01    0.4398230E+01    0.4398230E+01    0.4398230E+01    0.4398230E+01    0.4398230E+01
  0.4398230E+01    0.4398230E+01    0.4398230E+01    0.4398230E+01    0.4398230E+01    0.4398230E+01    0.4398230E+01    0.4398230E+01    0.4398230E+01    0.4398230E+01
  0.4398230E+01    0.4398230E+01    0.4398230E+01    0.4398230E+01    0.4398230E+01    0.4398230E+01    0.4712389E+01    0.4712389E+01    0.4712389E+01    0.4712389E+01
  0.4712389E+01    0.4712389E+01    0.4712389E+01    0.4712389E+01    0.4712389E+01    0.4712389E+01    0.4712389E+01    0.4712389E+01    0.4712389E+01    0.4712389E+01
  0.4712389E+01    0.4712389E+01    0.4712389E+01    0.4712389E+01    0.4712389E+01    0.4712389E+01    0.4712389E+01    0.5026548E+01    0.5026548E+01    0.5026548E+01
  0.5026548E+01    0.5026548E+01    0.5026548E+01    0.5026548E+01    0.5026548E+01    0.5026548E+01    0.5026548E+01    0.5026548E+01    0.5026548E+01    0.5026548E+01
  0.5026548E+01    0.5026548E+01    0.5026548E+01    0.5026548E+01    0.5026548E+01    0.5026548E+01    0.5026548E+01    0.5026548E+01    0.5340708E+01    0.5340708E+01
  0.5340708E+01    0.5340708E+01    0.5340708E+01    0.5340708E+01    0.5340708E+01    0.5340708E+01    0.5340708E+01    0.5340708E+01    0.5340708E+01    0.5340708E+01
  0.5340708E+01    0.5340708E+01    0.5340708E+01    0.5340708E+01    0.5340708E+01    0.5340708E+01    0.5340708E+01    0.5340708E+01    0.5340708E+01    0.5654867E+01
  0.5654867E+01    0.5654867E+01    0.5654867E+01    0.5654867E+01    0.5654867E+01    0.5654867E+01    0.5654867E+01    0.5654867E+01    0.5654867E+01    0.5654867E+01
  0.5654867E+01    0.5654867E+01    0.5654867E+01    0.5654867E+01    0.5654867E+01    0.5654867E+01    0.5654867E+01    0.5654867E+01    0.5654867E+01    0.5654867E+01
  0.5969026E+01    0.5969026E+01    0.5969026E+01    0.5969026E+01    0.5969026E+01    0.5969026E+01    0.5969026E+01    0.5969026E+01    0.5969026E+01    0.5969026E+01
  0.5969026E+01    0.5969026E+01    0.5969026E+01    0.5969026E+01    0.5969026E+01    0.5969026E+01    0.5969026E+01    0.5969026E+01    0.5969026E+01    0.5969026E+01
  0.5969026E+01    0.6283185E+01    0.6283185E+01    0.6283185E+01    0.6283185E+01    0.6283185E+01    0.6283185E+01    0.6283185E+01    0.6283185E+01    0.6283185E+01
  0.6283185E+01    0.6283185E+01    0.6283185E+01    0.6283185E+01    0.6283185E+01    0.6283185E+01    0.6283185E+01    0.6283185E+01    0.6283185E+01    0.6283185E+01
  0.6283185E+01    0.6283185E+01   -0.1411994E-01   -0.1273793E-01   -0.1010900E-01   -0.6490477E-02   -0.2236557E-02    0.2236506E-02    0.6490981E-02    0.1011039E-01
  0.1274044E-01    0.1412063E-01    0.1411837E-01    0.1273714E-01    0.1010897E-01    0.6490507E-02    0.2236849E-02   -0.2235858E-02   -0.6490188E-02   -0.1010882E-01
 -0.1273792E-01   -0.1412075E-01   -0.4097555E-01   -0.3696409E-01   -0.2933425E-01   -0.1883279E-01   -0.6487619E-02    0.6492880E-02    0.1883815E-01    0.2933955E-01
  0.3696863E-01    0.4097725E-01    0.4097458E-01    0.3696290E-01    0.2933358E-01    0.1883260E-01    0.6488139E-02   -0.6491529E-02   -0.1883611E-01   -0.2933684E-01
 -0.3696586E-01   -0.4097664E-01   -0.6382004E-01   -0.5757203E-01   -0.4568818E-01   -0.2933180E-01   -0.1010390E-01    0.1011331E-01    0.2934077E-01    0.4569607E-01
  0.5757784E-01    0.6382256E-01    0.6381976E-01    0.5757088E-01    0.4568718E-01    0.2933133E-01    0.1010439E-01   -0.1011173E-01   -0.2933837E-01   -0.4569322E-01
 -0.5757538E-01   -0.6382184E-01   -0.8041787E-01   -0.7254462E-01   -0.5757004E-01   -0.3695984E-01   -0.1273146E-01    0.1274337E-01    0.3697090E-01    0.5757925E-01
  0.7255093E-01    0.8042031E-01    0.8041746E-01    0.7254339E-01    0.5756876E-01    0.3695903E-01    0.1273166E-01   -0.1274207E-01   -0.3696882E-01   -0.5757692E-01
 -0.7254918E-01   -0.8042008E-01   -0.8914389E-01   -0.8041622E-01   -0.6381674E-01   -0.4097022E-01   -0.1411305E-01    0.1412575E-01    0.4098184E-01    0.6382608E-01
  0.8042227E-01    0.8914583E-01    0.8914305E-01    0.8041468E-01    0.6381510E-01    0.4096900E-01    0.1411273E-01   -0.1412510E-01   -0.4098053E-01   -0.6382465E-01
 -0.8042136E-01   -0.8914599E-01   -0.8914360E-01   -0.8041610E-01   -0.6381668E-01   -0.4097027E-01   -0.1411327E-01    0.1412531E-01    0.4098115E-01    0.6382522E-01
  0.8042136E-01    0.8914506E-01    0.8914248E-01    0.8041420E-01    0.6381466E-01    0.4096856E-01    0.1411226E-01   -0.1412549E-01   -0.4098081E-01   -0.6382485E-01
 -0.8042144E-01   -0.8914604E-01   -0.8041771E-01   -0.7254434E-01   -0.5756980E-01   -0.3695984E-01   -0.1273195E-01    0.1274225E-01    0.3696906E-01    0.5757680E-01
  0.7254832E-01    0.8041811E-01    0.8041582E-01    0.7254200E-01    0.5756738E-01    0.3695760E-01    0.1273027E-01   -0.1274327E-01   -0.3696976E-01   -0.5757752E-01
 -0.7254942E-01   -0.8042008E-01   -0.6381982E-01   -0.5757142E-01   -0.4568755E-01   -0.2933145E-01   -0.1010422E-01    0.1011206E-01    0.2933835E-01    0.4569254E-01
  0.5757386E-01    0.6381923E-01    0.6381736E-01    0.5756867E-01    0.4568471E-01    0.2932877E-01    0.1010197E-01   -0.1011391E-01   -0.2933999E-01   -0.4569421E-01
 -0.5757587E-01   -0.6382169E-01   -0.4097447E-01   -0.3696286E-01   -0.2933295E-01   -0.1883173E-01   -0.6487211E-02    0.6492236E-02    0.1883603E-01    0.2933579E-01
  0.3696377E-01    0.4097331E-01    0.4097192E-01    0.3695986E-01    0.2932989E-01    0.1882878E-01    0.6484465E-02   -0.6494704E-02   -0.1883835E-01   -0.2933826E-01
 -0.3696653E-01   -0.4097647E-01   -0.1411887E-01   -0.1273618E-01   -0.1010696E-01   -0.6488494E-02   -0.2235032E-02    0.2237116E-02    0.6490127E-02    0.1010758E-01
  0.1273550E-01    0.1411664E-01    0.1411570E-01    0.1273300E-01    0.1010382E-01    0.6485350E-02    0.2232031E-02   -0.2239935E-02   -0.6493006E-02   -0.1011062E-01
 -0.1273876E-01   -0.1412040E-01    0.1411919E-01    0.1273726E-01    0.1010841E-01    0.6489946E-02    0.2236042E-02   -0.2236864E-02   -0.6490996E-02   -0.1010993E-01
 -0.1273934E-01   -0.1412193E-01   -0.1412233E-01   -0.1274039E-01   -0.1011155E-01   -0.6493049E-02   -0.2239077E-02    0.2233767E-02    0.6487801E-02    0.1010663E-01
  0.1273585E-01    0.1411841E-01    0.4097537E-01    0.3696397E-01    0.2933433E-01    0.1883314E-01    0.6488259E-02   -0.6491884E-02   -0.1883668E-01   -0.2933778E-01
 -0.3696723E-01   -0.4097817E-01   -0.4097804E-01   -0.3696685E-01   -0.2933719E-01   -0.1883601E-01   -0.6491295E-02    0.6488756E-02    0.1883344E-01    0.2933430E-01
  0.3696363E-01    0.4097452E-01    0.6381993E-01    0.5757220E-01    0.4568872E-01    0.2933273E-01    0.1010526E-01   -0.1011148E-01   -0.2933858E-01   -0.4569401E-01
 -0.5757659E-01   -0.6382326E-01   -0.6382270E-01   -0.5757477E-01   -0.4569120E-01   -0.2933539E-01   -0.1010808E-01    0.1010851E-01    0.2933526E-01    0.4569047E-01
  0.5757302E-01    0.6381950E-01    0.8041743E-01    0.7254472E-01    0.5757061E-01    0.3696087E-01    0.1273295E-01   -0.1274149E-01   -0.3696886E-01   -0.5757750E-01
 -0.7255006E-01   -0.8042107E-01   -0.8041996E-01   -0.7254690E-01   -0.5757276E-01   -0.3696310E-01   -0.1273543E-01    0.1273855E-01    0.3696561E-01    0.5757411E-01
  0.7254663E-01    0.8041792E-01    0.8914355E-01    0.8041611E-01    0.6381700E-01    0.4097088E-01    0.1411403E-01   -0.1412454E-01   -0.4098054E-01   -0.6382512E-01
 -0.8042211E-01   -0.8914676E-01   -0.8914519E-01   -0.8041775E-01   -0.6381854E-01   -0.4097259E-01   -0.1411631E-01    0.1412183E-01    0.4097750E-01    0.6382178E-01
  0.8041890E-01    0.8914395E-01    0.8914292E-01    0.8041561E-01    0.6381641E-01    0.4097018E-01    0.1411332E-01   -0.1412516E-01   -0.4098101E-01   -0.6382542E-01
 -0.8042200E-01   -0.8914625E-01   -0.8914446E-01   -0.8041665E-01   -0.6381732E-01   -0.4097154E-01   -0.1411518E-01    0.1412276E-01    0.4097798E-01    0.6382220E-01
  0.8041902E-01    0.8914345E-01    0.8041657E-01    0.7254339E-01    0.5756889E-01    0.3695895E-01    0.1273099E-01   -0.1274328E-01   -0.3697020E-01   -0.5757814E-01
 -0.7254976E-01   -0.8041971E-01   -0.8041761E-01   -0.7254382E-01   -0.5756934E-01   -0.3695973E-01   -0.1273240E-01    0.1274099E-01    0.3696737E-01    0.5757519E-01
  0.7254702E-01    0.8041775E-01    0.6381903E-01    0.5757026E-01    0.4568623E-01    0.2932995E-01    0.1010247E-01   -0.1011400E-01   -0.2934043E-01   -0.4569473E-01
 -0.5757597E-01   -0.6382109E-01   -0.6381896E-01   -0.5757010E-01   -0.4568605E-01   -0.2933018E-01   -0.1010359E-01    0.1011214E-01    0.2933805E-01    0.4569204E-01
  0.5757360E-01    0.6381944E-01    0.4097353E-01    0.3696173E-01    0.2933157E-01    0.1883007E-01    0.6485255E-02   -0.6494454E-02   -0.1883839E-01   -0.2933822E-01
 -0.3696601E-01   -0.4097517E-01   -0.4097355E-01   -0.3696120E-01   -0.2933094E-01   -0.1882997E-01   -0.6485829E-02    0.6493237E-02    0.1883654E-01    0.2933618E-01
  0.3696432E-01    0.4097368E-01    0.1411756E-01    0.1273515E-01    0.1010580E-01    0.6487233E-02    0.2233552E-02   -0.2238811E-02   -0.6491788E-02   -0.1010921E-01
 -0.1273697E-01   -0.1411825E-01   -0.1411771E-01   -0.1273483E-01   -0.1010525E-01   -0.6486794E-02   -0.2233656E-02    0.2238301E-02    0.6491128E-02    0.1010845E-01
  0.1273672E-01    0.1411828E-01    0.1411906E-01    0.4097407E-01    0.6381719E-01    0.8041175E-01    0.8913318E-01    0.8912768E-01    0.8039498E-01    0.6378976E-01
  0.4093683E-01    0.1407061E-01   -0.1415936E-01   -0.4100817E-01   -0.6384705E-01   -0.8043875E-01   -0.8915837E-01   -0.8915368E-01   -0.8042380E-01   -0.6382242E-01
 -0.4097593E-01   -0.1411924E-01    0.1273686E-01    0.3696294E-01    0.5756958E-01    0.7253936E-01    0.8040654E-01    0.8040075E-01    0.7252217E-01    0.5754172E-01
  0.3692569E-01    0.1269298E-01   -0.1277690E-01   -0.3699774E-01   -0.5759992E-01   -0.7256660E-01   -0.8043232E-01   -0.8042726E-01   -0.7255150E-01   -0.5757536E-01
 -0.3696475E-01   -0.1273687E-01    0.1010741E-01    0.2933295E-01    0.4568589E-01    0.5756519E-01    0.6380766E-01    0.6380193E-01    0.5754831E-01    0.4565886E-01
  0.2929773E-01    0.1006769E-01   -0.1014624E-01   -0.2936780E-01   -0.4571672E-01   -0.5759311E-01   -0.6383432E-01   -0.6382933E-01   -0.5757839E-01   -0.4569286E-01
 -0.2933593E-01   -0.1010856E-01    0.6488078E-02    0.1883105E-01    0.2932937E-01    0.3695511E-01    0.4096150E-01    0.4095608E-01    0.3693925E-01    0.2930426E-01
  0.1879892E-01    0.6452497E-02   -0.6525497E-02   -0.1886552E-01   -0.2936057E-01   -0.3698384E-01   -0.4098917E-01   -0.4098449E-01   -0.3696999E-01   -0.2933825E-01
 -0.1883605E-01   -0.6491140E-02    0.2233028E-02    0.6485220E-02    0.1010112E-01    0.1272661E-01    0.1410442E-01    0.1409948E-01    0.1271223E-01    0.1007857E-01
  0.6456723E-02    0.2201784E-02   -0.2269310E-02   -0.6519249E-02   -0.1013263E-01   -0.1275612E-01   -0.1413314E-01   -0.1412891E-01   -0.1274355E-01   -0.1011244E-01
 -0.6492861E-02   -0.2238853E-02   -0.2240950E-02   -0.6495952E-02   -0.1011658E-01   -0.1274859E-01   -0.1413455E-01   -0.1413891E-01   -0.1276125E-01   -0.1013630E-01
 -0.6520694E-02   -0.2267983E-02    0.2205752E-02    0.6462386E-02    0.1008494E-01    0.1271844E-01    0.1410491E-01    0.1410870E-01    0.1272955E-01    0.1010264E-01
  0.6485427E-02    0.2232078E-02   -0.6495968E-02   -0.1884174E-01   -0.2934467E-01   -0.3697680E-01   -0.4099120E-01   -0.4099497E-01   -0.3698773E-01   -0.2936164E-01
 -0.1886295E-01   -0.6519101E-02    0.6461656E-02    0.1880864E-01    0.2931297E-01    0.3694613E-01    0.4096089E-01    0.4096419E-01    0.3695575E-01    0.2932824E-01
  0.1882845E-01    0.6484239E-02   -0.1011575E-01   -0.2934380E-01   -0.4570109E-01   -0.5758651E-01   -0.6383672E-01   -0.6383996E-01   -0.5759588E-01   -0.4571559E-01
 -0.2936185E-01   -0.1013537E-01    0.1008191E-01    0.2931095E-01    0.4566922E-01    0.5755540E-01    0.6380586E-01    0.6380863E-01    0.5756368E-01    0.4568240E-01
  0.2932784E-01    0.1010117E-01   -0.1274559E-01   -0.3697398E-01   -0.5758467E-01   -0.7256022E-01   -0.8043478E-01   -0.8043758E-01   -0.7256829E-01   -0.5759714E-01
 -0.3698952E-01   -0.1276255E-01    0.1271234E-01    0.3694137E-01    0.5755278E-01    0.7252889E-01    0.8040353E-01    0.8040600E-01    0.7253609E-01    0.5756415E-01
  0.3695596E-01    0.1272887E-01   -0.1412832E-01   -0.4098546E-01   -0.6383222E-01   -0.8043226E-01   -0.8916071E-01   -0.8916317E-01   -0.8043939E-01   -0.6384327E-01
 -0.4099925E-01   -0.1414339E-01    0.1409544E-01    0.4095307E-01    0.6380038E-01    0.8040075E-01    0.8912930E-01    0.8913155E-01    0.8040720E-01    0.6381052E-01
  0.4096614E-01    0.1411025E-01   -0.1412887E-01   -0.4098578E-01   -0.6383236E-01   -0.8043221E-01   -0.8916046E-01   -0.8916272E-01   -0.8043880E-01   -0.6384256E-01
 -0.4099849E-01   -0.1414275E-01    0.1409595E-01    0.4095337E-01    0.6380035E-01    0.8040057E-01    0.8912895E-01    0.8913096E-01    0.8040665E-01    0.6381000E-01
  0.4096556E-01    0.1410975E-01   -0.1274665E-01   -0.3697468E-01   -0.5758491E-01   -0.7255993E-01   -0.8043392E-01   -0.8043615E-01   -0.7256636E-01   -0.5759489E-01
 -0.3698722E-01   -0.1276044E-01    0.1271396E-01    0.3694229E-01    0.5755297E-01    0.7252836E-01    0.8040242E-01    0.8040455E-01    0.7253447E-01    0.5756248E-01
  0.3695443E-01    0.1272752E-01   -0.1011728E-01   -0.2934487E-01   -0.4570149E-01   -0.5758609E-01   -0.6383540E-01   -0.6383769E-01   -0.5759279E-01   -0.4571197E-01
 -0.2935805E-01   -0.1013185E-01    0.1008462E-01    0.2931256E-01    0.4566965E-01    0.5755459E-01    0.6380415E-01    0.6380641E-01    0.5756106E-01    0.4567976E-01
  0.2932546E-01    0.1009907E-01   -0.6498436E-02   -0.1884344E-01   -0.2934547E-01   -0.3697655E-01   -0.4098973E-01   -0.4099226E-01   -0.3698393E-01   -0.2935697E-01
 -0.1885790E-01   -0.6514450E-02    0.6465366E-02    0.1881090E-01    0.2931347E-01    0.3694519E-01    0.4095875E-01    0.4096111E-01    0.3695241E-01    0.2932489E-01
  0.1882518E-01    0.6481466E-02   -0.2243684E-02   -0.6497965E-02   -0.1011761E-01   -0.1274843E-01   -0.1413301E-01   -0.1413592E-01   -0.1275684E-01   -0.1013072E-01
 -0.6514588E-02   -0.2262116E-02    0.2210490E-02    0.6465234E-02    0.1008578E-01    0.1271746E-01    0.1410238E-01    0.1410530E-01    0.1272573E-01    0.1009865E-01
  0.6481711E-02    0.2228760E-02    0.2230172E-02    0.6483015E-02    0.1009987E-01    0.1272655E-01    0.1410578E-01    0.1410244E-01    0.1271683E-01    0.1008459E-01
  0.6463673E-02    0.2208732E-02   -0.2263766E-02   -0.6515828E-02   -0.1013147E-01   -0.1275717E-01   -0.1413570E-01   -0.1413236E-01   -0.1274766E-01   -0.1011657E-01
 -0.6496707E-02   -0.2242443E-02    0.6484898E-02    0.1882860E-01    0.2932780E-01    0.3695465E-01    0.4096236E-01    0.4095851E-01    0.3694340E-01    0.2931018E-01
  0.1880633E-01    0.6460193E-02   -0.6519324E-02   -0.1886175E-01   -0.2935943E-01   -0.3698475E-01   -0.4099156E-01   -0.4098797E-01   -0.3697386E-01   -0.2934212E-01
 -0.1883988E-01   -0.6494616E-02    0.1010474E-01    0.2933068E-01    0.4568429E-01    0.5756444E-01    0.6380800E-01    0.6380364E-01    0.5755167E-01    0.4566422E-01
  0.2930518E-01    0.1007638E-01   -0.1013959E-01   -0.2936414E-01   -0.4571564E-01   -0.5759386E-01   -0.6383650E-01   -0.6383228E-01   -0.5758159E-01   -0.4569628E-01
 -0.2933926E-01   -0.1011164E-01    0.1273495E-01    0.3696117E-01    0.5756816E-01    0.7253842E-01    0.8040639E-01    0.8040154E-01    0.7252425E-01    0.5754577E-01
  0.3693266E-01    0.1270333E-01   -0.1277032E-01   -0.3699472E-01   -0.5759917E-01   -0.7256725E-01   -0.8043390E-01   -0.8042936E-01   -0.7255382E-01   -0.5757782E-01
 -0.3696717E-01   -0.1273897E-01    0.1411751E-01    0.4097277E-01    0.6381593E-01    0.8041064E-01    0.8913259E-01    0.8912731E-01    0.8039529E-01    0.6379182E-01
  0.4094215E-01    0.1408420E-01   -0.1415351E-01   -0.4100663E-01   -0.6384713E-01   -0.8043884E-01   -0.8915938E-01   -0.8915502E-01   -0.8042447E-01   -0.6382391E-01
 -0.4097751E-01   -0.1411973E-01    0.9102987E-03    0.1233623E-02    0.1732310E-02    0.2329832E-02    0.2600329E-02    0.2558312E-02    0.2196609E-02    0.1493055E-02
  0.8993442E-03    0.4093610E-03    0.5195792E-03    0.9928233E-03    0.1526574E-02    0.2156108E-02    0.2552671E-02    0.2493388E-02    0.2229861E-02    0.1663387E-02
  0.1122205E-02    0.8576236E-03    0.1226224E-02    0.1534920E-02    0.2073103E-02    0.2652996E-02    0.2900218E-02    0.2902287E-02    0.2547280E-02    0.1849869E-02
  0.1319935E-02    0.8841462E-03    0.8880877E-03    0.1360175E-02    0.1862551E-02    0.2483643E-02    0.2932850E-02    0.2838846E-02    0.2558102E-02    0.2058989E-02
  0.1456983E-02    0.1153531E-02    0.1751495E-02    0.2093902E-02    0.2639939E-02    0.3191392E-02    0.3468810E-02    0.3472305E-02    0.3110091E-02    0.2485323E-02
  0.1971193E-02    0.1527941E-02    0.1545032E-02    0.1982035E-02    0.2446281E-02    0.3087276E-02    0.3519370E-02    0.3385702E-02    0.3135971E-02    0.2613885E-02
  0.1994791E-02    0.1775513E-02    0.2355018E-02    0.2671142E-02    0.3186750E-02    0.3737202E-02    0.3997106E-02    0.4015194E-02    0.3688943E-02    0.3089390E-02
  0.2579203E-02    0.2141476E-02    0.2138526E-02    0.2523615E-02    0.2976534E-02    0.3619967E-02    0.4029944E-02    0.3922731E-02    0.3684738E-02    0.3167996E-02