 TITLE = "NAVIER-STOKES OUTPUT"
 VARIABLES = "X", "Y", "U", "V", "P", "Pex", "Vor"
 ZONE I =   21, J =   21, DATAPACKING = BLOCK, VARLOCATION=(3=CELLCENTERED, 4=CELLCENTERED,5=CELLCENTERED,6=CELLCENTERED, 7=CELLCENTERED)
  0.0000000E+00    0.3141593E+00    0.6283185E+00    0.9424778E+00    0.1256637E+01    0.1570796E+01    0.1884956E+01    0.2199115E+01    0.2513274E+01    0.2827433E+01
  0.3141593E+01    0.3455752E+01    0.3769911E+01    0.4084071E+01    0.4398230E+01    0.4712389E+01    0.5026548E+01    0.5340708E+01    0.5654867E+01    0.5969026E+01
  0.6283185E+01    0.0000000E+00    0.3141593E+00    0.6283185E+00    0.9424778E+00    0.1256637E+01    0.1570796E+01    0.1884956E+01    0.2199115E+01    0.2513274E+01
  0.2827433E+01    0.3141593E+01    0.3455752E+01    0.3769911E+01    0.4084071E+01    0.4398230E+01    0.4712389E+01    0.5026548E+01    0.5340708E+01    0.5654867E+01
  0.5969026E+01    0.6283185E+01    0.0000000E+00    0.3141593E+00    0.6283185E+00    0.9424778E+00    0.1256637E+01    0.1570796E+01    0.1884956E+01    0.2199115E+01
  0.2513274E+01    0.2827433E+01    0.3141593E+01    0.3455752E+01    0.3769911E+01    0.4084071E+01    0.4398230E+01    0.4712389E+01    0.5026548E+01    0.5340708E+01
  0.5654867E+01    0.5969026E+01    0.6283185E+01    0.0000000E+00    0.3141593E+00    0.6283185E+00    0.9424778E+00    0.1256637E+01    0.1570796E+01    0.1884956E+01
  0.2199115E+01    0.2513274E+01    0.2827433E+01    0.3141593E+01    0.3455752E+01    0.3769911E+01    0.4084071E+01    0.4398230E+01    0.4712389E+01    0.5026548E+01
  0.5340708E+01    0.5654867E+01    0.5969026E+01    0.6283185E+01    0.0000000E+00    0.3141593E+00    0.6283185E+00    0.9424778E+00    0.1256637E+01    0.1570796E+01
  0.1884956E+01    0.2199115E+01    0.2513274E+01    0.2827433E+01    0.3141593E+01    0.3455752E+01    0.3769911E+01    0.4084071E+01    0.4398230E+01    0.4712389E+01
  0.5026548E+01    0.5340708E+01    0.5654867E+01    0.5969026E+01    0.6283185E+01    0.0000000E+00    0.3141593E+00    0.6283185E+00    0.9424778E+00    0.1256637E+01
  0.1570796E+01    0.1884956E+01    0.2199115E+01    0.2513274E+01    0.2827433E+01    0.3141593E+01    0.3455752E+01    0.3769911E+01    0.4084071E+01    0.4398230E+01
  0.4712389E+01    0.5026548E+01    0.5340708E+01    0.5654867E+01    0.5969026E+01    0.6283185E+01    0.0000000E+00    0.3141593E+00    0.6283185E+00    0.9424778E+00
  0.1256637E+01    0.1570796E+01    0.1884956E+01    0.2199115E+01    0.2513274E+01    0.2827433E+01    0.3141593E+01    0.3455752E+01    0.3769911E+01    0.4084071E+01
  0.4398230E+01    0.4712389E+01    0.5026548E+01    0.5340708E+01    0.5654867E+01    0.5969026E+01    0.6283185E+01    0.0000000E+00    0.3141593E+00    0.6283185E+00
  0.9424778E+00    0.1256637E+01    0.1570796E+01    0.1884956E+01    0.2199115E+01    0.2513274E+01    0.2827433E+01    0.3141593E+01    0.3455752E+01    0.3769911E+01
  0.4084071E+01    0.4398230E+01    0.4712389E+01    0.5026548E+01    0.5340708E+01    0.5654867E+01    0.5969026E+01    0.6283185E+01    0.0000000E+00    0.3141593E+00
  0.6283185E+00    0.9424778E+00    0.1256637E+01    0.1570796E+01    0.1884956E+01    0.2199115E+01    0.2513274E+01    0.2827433E+01    0.3141593E+01    0.3455752E+01
  0.3769911E+01    0.4084071E+01    0.4398230E+01    0.4712389E+01    0.5026548E+01    0.5340708E+01    0.5654867E+01    0.5969026E+01    0.6283185E+01    0.0000000E+00
  0.3141593E+00    0.6283185E+00    0.9424778E+00    0.1256637E+01    0.1570796E+01    0.1884956E+01    0.2199115E+01    0.2513274E+01    0.2827433E+01    0.3141593E+01
  0.3455752E+01    0.3769911E+01    0.4084071E+01    0.4398230E+01    0.4712389E+01    0.5026548E+01    0.5340708E+01    0.5654867E+01    0.5969026E+01    0.6283185E+01
  0.0000000E+00    0.3141593E+00    0.6283185E+00    0.9424778E+00    0.1256637E+01    0.1570796E+01    0.1884956E+01    0.2199115E+01    0.2513274E+01    0.2827433E+01
  0.3141593E+01    0.3455752E+01    0.3769911E+01    0.4084071E+01    0.4398230E+01    0.4712389E+01    0.5026548E+01    0.5340708E+01    0.5654867E+01    0.5969026E+01
  0.6283185E+01    0.0000000E+00    0.3141593E+00    0.6283185E+00    0.9424778E+00    0.1256637E+01    0.1570796E+01    0.1884956E+01    0.2199115E+01    0.2513274E+01
  0.2827433E+01    0.3141593E+01    0.3455752E+01    0.3769911E+01    0.4084071E+01    0.4398230E+01    0.4712389E+01    0.5026548E+01    0.5340708E+01    0.5654867E+01
  0.5969026E+01    0.6283185E+01    0.0000000E+00    0.3141593E+00    0.6283185E+00    0.9424778E+00    0.1256637E+01    0.1570796E+01    0.1884956E+01    0.2199115E+01
  0.2513274E+01    0.2827433E+01    0.3141593E+01    0.3455752E+01    0.3769911E+01    0.4084071E+01    0.4398230E+01    0.4712389E+01    0.5026548E+01    0.5340708E+01
  0.5654867E+01    0.5969026E+01    0.6283185E+01    0.0000000E+00    0.3141593E+00    0.6283185E+00    0.9424778E+00    0.1256637E+01    0.1570796E+01    0.1884956E+01
  0.2199115E+01    0.2513274E+01    0.2827433E+01    0.3141593E+01    0.3455752E+01    0.3769911E+01    0.4084071E+01    0.4398230E+01    0.4712389E+01    0.5026548E+01
  0.5340708E+01    0.5654867E+01    0.5969026E+01    0.6283185E+01    0.0000000E+00    0.3141593E+00    0.6283185E+00    0.9424778E+00    0.1256637E+01    0.1570796E+01
  0.1884956E+01    0.2199115E+01    0.2513274E+01    0.2827433E+01    0.3141593E+01    0.3455752E+01    0.3769911E+01    0.4084071E+01    0.4398230E+01    0.4712389E+01
  0.5026548E+01    0.5340708E+01    0.5654867E+01    0.5969026E+01    0.6283185E+01    0.0000000E+00    0.3141593E+00    0.6283185E+00    0.9424778E+00    0.1256637E+01
  0.1570796E+01    0.1884956E+01    0.2199115E+01    0.2513274E+01    0.2827433E+01    0.3141593E+01    0.3455752E+01    0.3769911E+01    0.4084071E+01    0.4398230E+01
  0.4712389E+01    0.5026548E+01    0.5340708E+01    0.5654867E+01    0.5969026E+01    0.6283185E+01    0.0000000E+00    0.3141593E+00    0.6283185E+00    0.9424778E+00
  0.1256637E+01    0.1570796E+01    0.1884956E+01    0.2199115E+01    0.2513274E+01    0.2827433E+01    0.3141593E+01    0.3455752E+01    0.3769911E+01    0.4084071E+01
  0.4398230E+01    0.4712389E+01    0.5026548E+01    0.5340708E+01    0.5654867E+01    0.5969026E+01    0.6283185E+01    0.0000000E+00    0.3141593E+00    0.6283185E+00
  0.9424778E+00    0.1256637E+01    0.1570796E+01    0.1884956E+01    0.2199115E+01    0.2513274E+01    0.2827433E+01    0.3141593E+01    0.3455752E+01    0.3769911E+01
  0.4084071E+01    0.4398230E+01    0.4712389E+01    0.5026548E+01    0.5340708E+01    0.5654867E+01    0.5969026E+01    0.6283185E+01    0.0000000E+00    0.3141593E+00
  0.6283185E+00    0.9424778E+00    0.1256637E+01    0.1570796E+01    0.1884956E+01    0.2199115E+01    0.2513274E+01    0.2827433E+01    0.3141593E+01    0.3455752E+01
  0.3769911E+01    0.4084071E+01    0.4398230E+01    0.4712389E+01    0.5026548E+01    0.5340708E+01    0.5654867E+01    0.5969026E+01    0.6283185E+01    0.0000000E+00
  0.3141593E+00    0.6283185E+00    0.9424778E+00    0.1256637E+01    0.1570796E+01    0.1884956E+01    0.2199115E+01    0.2513274E+01    0.2827433E+01    0.3141593E+01
  0.3455752E+01    0.3769911E+01    0.4084071E+01    0.4398230E+01    0.4712389E+01    0.5026548E+01    0.5340708E+01    0.5654867E+01    0.5969026E+01    0.6283185E+01
  0.0000000E+00    0.3141593E+00    0.6283185E+00    0.9424778E+00    0.1256637E+01    0.1570796E+01    0.1884956E+01    0.2199115E+01    0.2513274E+01    0.2827433E+01
  0.3141593E+01    0.3455752E+01    0.3769911E+01    0.4084071E+01    0.4398230E+01    0.4712389E+01    0.5026548E+01    0.5340708E+01    0.5654867E+01    0.5969026E+01
  0.6283185E+01    0.0000000E+00    0.0000000E+00    0.0000000E+00    0.0000000E+00    0.0000000E+00    0.0000000E+00    0.0000000E+00    0.0000000E+00    0.0000000E+00
  0.0000000E+00    0.0000000E+00    0.0000000E+00    0.0000000E+00    0.0000000E+00    0.0000000E+00    0.0000000E+00    0.0000000E+00    0.0000000E+00    0.0000000E+00
  0.0000000E+00    0.0000000E+00    0.3141593E+00    0.3141593E+00    0.3141593E+00    0.3141593E+00    0.3141593E+00    0.3141593E+00    0.3141593E+00    0.3141593E+00
  0.3141593E+00    0.3141593E+00    0.3141593E+00    0.3141593E+00    0.3141593E+00    0.3141593E+00    0.3141593E+00    0.3141593E+00    0.3141593E+00    0.3141593E+00
  0.3141593E+00    0.3141593E+00    0.3141593E+00    0.6283185E+00    0.6283185E+00    0.6283185E+00    0.6283185E+00    0.6283185E+00    0.6283185E+00    0.6283185E+00
  0.6283185E+00    0.6283185E+00    0.6283185E+00    0.6283185E+00    0.6283185E+00    0.6283185E+00    0.6283185E+00    0.6283185E+00    0.6283185E+00    0.6283185E+00
  0.6283185E+00    0.6283185E+00    0.6283185E+00    0.6283185E+00    0.9424778E+00    0.9424778E+00    0.9424778E+00    0.9424778E+00    0.9424778E+00    0.9424778E+00
  0.9424778E+00    0.9424778E+00    0.9424778E+00    0.9424778E+00    0.9424778E+00    0.9424778E+00    0.9424778E+00    0.9424778E+00    0.9424778E+00    0.9424778E+00
  0.9424778E+00    0.9424778E+00    0.9424778E+00    0.9424778E+00    0.9424778E+00    0.1256637E+01    0.1256637E+01    0.1256637E+01    0.1256637E+01    0.1256637E+01
  0.1256637E+01    0.1256637E+01    0.1256637E+01    0.1256637E+01    0.1256637E+01    0.1256637E+01    0.1256637E+01    0.1256637E+01    0.1256637E+01    0.1256637E+01
  0.1256637E+01    0.1256637E+01    0.1256637E+01    0.1256637E+01    0.1256637E+01    0.1256637E+01    0.1570796E+01    0.1570796E+01    0.1570796E+01    0.1570796E+01
  0.1570796E+01    0.1570796E+01    0.1570796E+01    0.1570796E+01    0.1570796E+01    0.1570796E+01    0.1570796E+01    0.1570796E+01    0.1570796E+01    0.1570796E+01
  0.1570796E+01    0.1570796E+01    0.1570796E+01    0.1570796E+01    0.1570796E+01    0.1570796E+01    0.1570796E+01    0.1884956E+01    0.1884956E+01    0.1884956E+01
  0.1884956E+01    0.1884956E+01    0.1884956E+01    0.1884956E+01    0.1884956E+01    0.1884956E+01    0.1884956E+01    0.1884956E+01    0.1884956E+01    0.1884956E+01
  0.1884956E+01    0.1884956E+01    0.1884956E+01    0.1884956E+01    0.1884956E+01    0.1884956E+01    0.1884956E+01    0.1884956E+01    0.2199115E+01    0.2199115E+01
  0.2199115E+01    0.2199115E+01    0.2199115E+01    0.2199115E+01    0.2199115E+01    0.2199115E+01    0.2199115E+01    0.2199115E+01    0.2199115E+01    0.2199115E+01
  0.2199115E+01    0.2199115E+01    0.2199115E+01    0.2199115E+01    0.2199115E+01    0.2199115E+01    0.2199115E+01    0.2199115E+01    0.2199115E+01    0.2513274E+01
  0.2513274E+01    0.2513274E+01    0.2513274E+01    0.2513274E+01    0.2513274E+01    0.2513274E+01    0.2513274E+01    0.2513274E+01    0.2513274E+01    0.2513274E+01
  0.2513274E+01    0.2513274E+01    0.2513274E+01    0.2513274E+01    0.2513274E+01    0.2513274E+01    0.2513274E+01    0.2513274E+01    0.2513274E+01    0.2513274E+01
  0.2827433E+01    0.2827433E+01    0.2827433E+01    0.2827433E+01    0.2827433E+01    0.2827433E+01    0.2827433E+01    0.2827433E+01    0.2827433E+01    0.2827433E+01
  0.2827433E+01    0.2827433E+01    0.2827433E+01    0.2827433E+01    0.2827433E+01    0.2827433E+01    0.2827433E+01    0.2827433E+01    0.2827433E+01    0.2827433E+01
  0.2827433E+01    0.3141593E+01    0.3141593E+01    0.3141593E+01    0.3141593E+01    0.3141593E+01    0.3141593E+01    0.3141593E+01    0.3141593E+01    0.3141593E+01
  0.3141593E+01    0.3141593E+01    0.3141593E+01    0.3141593E+01    0.3141593E+01    0.3141593E+01    0.3141593E+01    0.3141593E+01    0.3141593E+01    0.3141593E+01
  0.3141593E+01    0.3141593E+01    0.3455752E+01    0.3455752E+01    0.3455752E+01    0.3455752E+01    0.3455752E+01    0.3455752E+01    0.3455752E+01    0.3455752E+01
  0.3455752E+01    0.3455752E+01    0.3455752E+01    0.3455752E+01    0.3455752E+01    0.3455752E+01    0.3455752E+01    0.3455752E+01    0.3455752E+01    0.3455752E+01
  0.3455752E+01    0.3455752E+01    0.3455752E+01    0.3769911E+01    0.3769911E+01    0.3769911E+01    0.3769911E+01    0.3769911E+01    0.3769911E+01    0.3769911E+01
  0.3769911E+01    0.3769911E+01    0.3769911E+01    0.3769911E+01    0.3769911E+01    0.3769911E+01    0.3769911E+01    0.3769911E+01    0.3769911E+01    0.3769911E+01
  0.3769911E+01    0.3769911E+01    0.3769911E+01    0.3769911E+01    0.4084071E+01    0.4084071E+01    0.4084071E+01    0.4084071E+01    0.4084071E+01    0.4084071E+01
  0.4084071E+01    0.4084071E+01    0.4084071E+01    0.4084071E+01    0.4084071E+01    0.4084071E+01    0.4084071E+01    0.4084071E+01    0.4084071E+01    0.4084071E+01
  0.4084071E+01    0.4084071E+01    0.4084071E+01    0.4084071E+01    0.4084071E+01    0.4398230E+01    0.4398230E+01    0.4398230E+01    0.4398230E+01    0.4398230E+01
  0.4398230E+01    0.4398230E+01    0.4398230E+01    0.4398230E+01    0.4398230E+01    0.4398230E+01    0.4398230E+01    0.4398230E+01    0.4398230E+01    0.4398230E+01
  0.4398230E+01    0.4398230E+01    0.4398230E+01    0.4398230E+01    0.4398230E+01    0.4398230E+01    0.4712389E+01    0.4712389E+01    0.4712389E+01    0.4712389E+01
  0.4712389E+01    0.4712389E+01    0.4712389E+01    0.4712389E+01    0.4712389E+01    0.4712389E+01    0.4712389E+01    0.4712389E+01    0.4712389E+01    0.4712389E+01
  0.4712389E+01    0.4712389E+01    0.4712389E+01    0.4712389E+01    0.4712389E+01    0.4712389E+01    0.4712389E+01    0.5026548E+01    0.5026548E+01    0.5026548E+01
  0.5026548E+01    0.5026548E+01    0.5026548E+01    0.5026548E+01    0.5026548E+01    0.5026548E+01    0.5026548E+01    0.5026548E+01    0.5026548E+01    0.5026548E+01
  0.5026548E+01    0.5026548E+01    0.5026548E+01    0.5026548E+01    0.5026548E+01    0.5026548E+01    0.5026548E+01    0.5026548E+01    0.5340708E+01    0.5340708E+01
  0.5340708E+01    0.5340708E+01    0.5340708E+01    0.5340708E+01    0.5340708E+01    0.5340708E+01    0.5340708E+01    0.5340708E+01    0.5340708E+01    0.5340708E+01
  0.5340708E+01    0.5340708E+01    0.5340708E+01    0.5340708E+01    0.5340708E+01    0.5340708E+01    0.5340708E+01    0.5340708E+01    0.5340708E+01    0.5654867E+01
  0.5654867E+01    0.5654867E+01    0.5654867E+01    0.5654867E+01    0.5654867E+01    0.5654867E+01    0.5654867E+01    0.5654867E+01    0.5654867E+01    0.5654867E+01
  0.5654867E+01    0.5654867E+01    0.5654867E+01    0.5654867E+01    0.5654867E+01    0.5654867E+01    0.5654867E+01    0.5654867E+01    0.5654867E+01    0.5654867E+01
  0.5969026E+01    0.5969026E+01    0.5969026E+01    0.5969026E+01    0.5969026E+01    0.5969026E+01    0.5969026E+01    0.5969026E+01    0.5969026E+01    0.5969026E+01
  0.5969026E+01    0.5969026E+01    0.5969026E+01    0.5969026E+01    0.5969026E+01    0.5969026E+01    0.5969026E+01    0.5969026E+01    0.5969026E+01    0.5969026E+01
  0.5969026E+01    0.6283185E+01    0.6283185E+01    0.6283185E+01    0.6283185E+01    0.6283185E+01    0.6283185E+01    0.6283185E+01    0.6283185E+01    0.6283185E+01
  0.6283185E+01    0.6283185E+01    0.6283185E+01    0.6283185E+01    0.6283185E+01    0.6283185E+01    0.6283185E+01    0.6283185E+01    0.6283185E+01    0.6283185E+01
  0.6283185E+01    0.6283185E+01   -0.9292209E-01   -0.8382119E-01   -0.6651273E-01   -0.4269026E-01   -0.1468495E-01    0.1476352E-01    0.4277628E-01    0.6661549E-01
  0.8394121E-01    0.9294610E-01    0.9285095E-01    0.8377072E-01    0.6648583E-01    0.4267989E-01    0.1468727E-01   -0.1474735E-01   -0.4274317E-01   -0.6655876E-01
 -0.8386005E-01   -0.9295544E-01   -0.2697035E+00   -0.2432977E+00   -0.1930732E+00   -0.1239453E+00   -0.4267926E-01    0.4277204E-01    0.1240463E+00    0.1931857E+00
  0.2434043E+00    0.2697355E+00    0.2696606E+00    0.2432495E+00    0.1930408E+00    0.1239307E+00    0.4268188E-01   -0.4275060E-01   -0.1240036E+00   -0.1931219E+00
 -0.2433381E+00   -0.2697376E+00   -0.4200837E+00   -0.3789577E+00   -0.3007337E+00   -0.1930675E+00   -0.6649711E-01    0.6658912E-01    0.1931638E+00    0.3008321E+00
  0.3790408E+00    0.4201169E+00    0.4200672E+00    0.3789266E+00    0.3007078E+00    0.1930545E+00    0.6649945E-01   -0.6656964E-01   -0.1931268E+00   -0.3007829E+00
 -0.3789985E+00   -0.4201173E+00   -0.5293423E+00   -0.4775218E+00   -0.3789553E+00   -0.2432902E+00   -0.8380581E-01    0.8388687E-01    0.2433719E+00    0.3790334E+00
  0.4775842E+00    0.5293724E+00    0.5293408E+00    0.4775060E+00    0.3789389E+00    0.2432810E+00    0.8380727E-01   -0.8387309E-01   -0.2433467E+00   -0.3790029E+00
 -0.4775619E+00   -0.5293760E+00   -0.5867845E+00   -0.5293414E+00   -0.4200804E+00   -0.2696963E+00   -0.9290908E-01    0.9297580E-01    0.2697615E+00    0.4201401E+00
  0.5293878E+00    0.5868093E+00    0.5867892E+00    0.5293354E+00    0.4200718E+00    0.2696906E+00    0.9290952E-01   -0.9296802E-01   -0.2697476E+00   -0.4201248E+00
 -0.5293792E+00   -0.5868164E+00   -0.5867851E+00   -0.5293428E+00   -0.4200829E+00   -0.2697000E+00   -0.9291455E-01    0.9296796E-01    0.2697512E+00    0.4201286E+00
  0.5293784E+00    0.5868064E+00    0.5867933E+00    0.5293430E+00    0.4200796E+00    0.2696970E+00    0.9291427E-01   -0.9296480E-01   -0.2697455E+00   -0.4201235E+00
 -0.5293783E+00   -0.5868154E+00   -0.5293454E+00   -0.4775266E+00   -0.3789624E+00   -0.2433007E+00   -0.8382144E-01    0.8386421E-01    0.2433414E+00    0.3789982E+00
  0.4775548E+00    0.5293640E+00    0.5293551E+00    0.4775302E+00    0.3789625E+00    0.2432998E+00    0.8382083E-01   -0.8386393E-01   -0.2433408E+00   -0.3789994E+00
 -0.4775603E+00   -0.5293759E+00   -0.4200892E+00   -0.3789652E+00   -0.3007442E+00   -0.1930829E+00   -0.6652013E-01    0.6655511E-01    0.1931160E+00    0.3007733E+00
  0.3789883E+00    0.4201048E+00    0.4200985E+00    0.3789703E+00    0.3007464E+00    0.1930834E+00    0.6651964E-01   -0.6655625E-01   -0.1931183E+00   -0.3007778E+00
 -0.3789964E+00   -0.4201177E+00   -0.2697084E+00   -0.2433054E+00   -0.1930848E+00   -0.1239624E+00   -0.4270459E-01    0.4273422E-01    0.1239904E+00    0.1931097E+00
  0.2433259E+00    0.2697235E+00    0.2697188E+00    0.2433122E+00    0.1930886E+00    0.1239641E+00    0.4270458E-01   -0.4273584E-01   -0.1239939E+00   -0.1931156E+00
 -0.2433348E+00   -0.2697357E+00   -0.9292535E-01   -0.8382773E-01   -0.6652306E-01   -0.4270542E-01   -0.1470654E-01    0.1473260E-01    0.4273016E-01    0.6654524E-01
  0.8384642E-01    0.9294027E-01    0.9293650E-01    0.8383542E-01    0.6652801E-01    0.4270813E-01    0.1470711E-01   -0.1473411E-01   -0.4273396E-01   -0.6655188E-01
 -0.8385628E-01   -0.9295360E-01    0.9295373E-01    0.8385668E-01    0.6655204E-01    0.4273368E-01    0.1473301E-01   -0.1470916E-01   -0.4271099E-01   -0.6653167E-01
 -0.8383954E-01   -0.9294043E-01   -0.9294364E-01   -0.8384881E-01   -0.6654634E-01   -0.4273020E-01   -0.1473176E-01    0.1470810E-01    0.4270729E-01    0.6652504E-01
  0.8382976E-01    0.9292721E-01    0.2697375E+00    0.2433351E+00    0.1931145E+00    0.1239915E+00    0.4273215E-01   -0.4270948E-01   -0.1239699E+00   -0.1930949E+00
 -0.2433181E+00   -0.2697235E+00   -0.2697262E+00   -0.2433263E+00   -0.1931081E+00   -0.1239872E+00   -0.4273021E-01    0.4270887E-01    0.1239666E+00    0.1930886E+00
  0.2433089E+00    0.2697119E+00    0.4201183E+00    0.3789952E+00    0.3007749E+00    0.1931137E+00    0.6654991E-01   -0.6652771E-01   -0.1930926E+00   -0.3007558E+00
 -0.3789787E+00   -0.4201042E+00   -0.4201067E+00   -0.3789863E+00   -0.3007681E+00   -0.1931089E+00   -0.6654750E-01    0.6652755E-01    0.1930895E+00    0.3007495E+00
  0.3789689E+00    0.4200910E+00    0.5293744E+00    0.4775575E+00    0.3789948E+00    0.2433341E+00    0.8385474E-01   -0.8383242E-01   -0.2433130E+00   -0.3789762E+00
 -0.4775420E+00   -0.5293624E+00   -0.5293649E+00   -0.4775493E+00   -0.3789880E+00   -0.2433292E+00   -0.8385199E-01    0.8383254E-01    0.2433100E+00    0.3789697E+00
  0.4775320E+00    0.5293488E+00    0.5868159E+00    0.5293759E+00    0.4201180E+00    0.2697370E+00    0.9295286E-01   -0.9292974E-01   -0.2697154E+00   -0.4200991E+00
 -0.5293602E+00   -0.5868034E+00   -0.5868058E+00   -0.5293675E+00   -0.4201113E+00   -0.2697319E+00   -0.9294992E-01    0.9292982E-01    0.2697122E+00    0.4200923E+00
  0.5293500E+00    0.5867909E+00    0.5868162E+00    0.5293761E+00    0.4201185E+00    0.2697378E+00    0.9295372E-01   -0.9292906E-01   -0.2697151E+00   -0.4200994E+00
 -0.5293611E+00   -0.5868046E+00   -0.5868071E+00   -0.5293687E+00   -0.4201123E+00   -0.2697328E+00   -0.9295095E-01    0.9292897E-01    0.2697114E+00    0.4200912E+00
  0.5293487E+00    0.5867885E+00    0.5293735E+00    0.4775580E+00    0.3789964E+00    0.2433365E+00    0.8385749E-01   -0.8383004E-01   -0.2433119E+00   -0.3789768E+00
 -0.4775445E+00   -0.5293661E+00   -0.5293689E+00   -0.4775530E+00   -0.3789914E+00   -0.2433323E+00   -0.8385491E-01    0.8382976E-01    0.2433074E+00    0.3789674E+00
  0.4775302E+00    0.5293476E+00    0.4201176E+00    0.3789967E+00    0.3007781E+00    0.1931182E+00    0.6655525E-01   -0.6652262E-01   -0.1930892E+00   -0.3007554E+00
 -0.3789818E+00   -0.4201104E+00   -0.4201142E+00   -0.3789933E+00   -0.3007745E+00   -0.1931146E+00   -0.6655278E-01    0.6652247E-01    0.1930852E+00    0.3007459E+00
  0.3789666E+00    0.4200917E+00    0.2697382E+00    0.2433377E+00    0.1931194E+00    0.1239988E+00    0.4274135E-01   -0.4269959E-01   -0.1239610E+00   -0.1930889E+00
 -0.2433177E+00   -0.2697315E+00   -0.2697397E+00   -0.2433396E+00   -0.1931195E+00   -0.1239969E+00   -0.4273900E-01    0.4270119E-01    0.1239602E+00    0.1930826E+00
  0.2433034E+00    0.2697072E+00    0.9295319E-01    0.8386008E-01    0.6655915E-01    0.4274444E-01    0.1474771E-01   -0.1469078E-01   -0.4268930E-01   -0.6650767E-01
 -0.8381968E-01   -0.9294703E-01   -0.9297306E-01   -0.8387667E-01   -0.6656844E-01   -0.4274693E-01   -0.1474512E-01    0.1469721E-01    0.4269919E-01    0.6651815E-01
  0.8382352E-01    0.9292289E-01    0.9295654E-01    0.2697401E+00    0.4201228E+00    0.5293840E+00    0.5868278E+00    0.5868307E+00    0.5293849E+00    0.4200927E+00
  0.2696041E+00    0.9253600E-01   -0.9308307E-01   -0.2697603E+00   -0.4201014E+00   -0.5293480E+00   -0.5867829E+00   -0.5867817E+00   -0.5293442E+00   -0.4200844E+00
 -0.2697032E+00   -0.9292466E-01    0.8385579E-01    0.2433341E+00    0.3789958E+00    0.4775607E+00    0.5293799E+00    0.5293789E+00    0.4775498E+00    0.3789492E+00
  0.2432033E+00    0.8360089E-01   -0.8397787E-01   -0.2433743E+00   -0.3789935E+00   -0.4775398E+00   -0.5293499E+00   -0.5293474E+00   -0.4775296E+00   -0.3789652E+00
 -0.2433046E+00   -0.8382841E-01    0.6654790E-01    0.1931102E+00    0.3007711E+00    0.3789913E+00    0.4201129E+00    0.4201083E+00    0.3789716E+00    0.3007198E+00
  0.1930053E+00    0.6639160E-01   -0.6664401E-01   -0.1931565E+00   -0.3007837E+00   -0.3789861E+00   -0.4200999E+00   -0.4200957E+00   -0.3789710E+00   -0.3007495E+00
 -0.1930883E+00   -0.6652646E-01    0.4272719E-01    0.1239846E+00    0.1931062E+00    0.2433251E+00    0.2697244E+00    0.2697179E+00    0.2433024E+00    0.1930592E+00
  0.1239063E+00    0.4262650E-01   -0.4279751E-01   -0.1240276E+00   -0.1931266E+00   -0.2433319E+00   -0.2697255E+00   -0.2697205E+00   -0.2433153E+00   -0.1930931E+00
 -0.1239699E+00   -0.4271188E-01    0.1472478E-01    0.4272347E-01    0.6653991E-01    0.8384219E-01    0.9293574E-01    0.9292901E-01    0.8382067E-01    0.6650079E-01
  0.4266621E-01    0.1465710E-01   -0.1477631E-01   -0.4276034E-01   -0.6656298E-01   -0.8385630E-01   -0.9294631E-01   -0.9294150E-01   -0.8384092E-01   -0.6653425E-01
 -0.4271520E-01   -0.1471529E-01   -0.1471835E-01   -0.4271888E-01   -0.6653866E-01   -0.8384636E-01   -0.9294830E-01   -0.9295437E-01   -0.8386485E-01   -0.6656976E-01
 -0.4276079E-01   -0.1476527E-01    0.1467929E-01    0.4268801E-01    0.6651578E-01    0.8382876E-01    0.9293242E-01    0.9293646E-01    0.8384148E-01    0.6653844E-01
  0.4272148E-01    0.1472232E-01   -0.4271959E-01   -0.1239787E+00   -0.1931030E+00   -0.2433264E+00   -0.2697329E+00   -0.2697380E+00   -0.2433415E+00   -0.1931273E+00
 -0.1240098E+00   -0.4275323E-01    0.4268933E-01    0.1239531E+00    0.1930819E+00    0.2433080E+00    0.2697148E+00    0.2697180E+00    0.2433177E+00    0.1930987E+00
  0.1239772E+00    0.4271953E-01   -0.6653887E-01   -0.1931022E+00   -0.3007647E+00   -0.3789875E+00   -0.4201138E+00   -0.4201179E+00   -0.3789995E+00   -0.3007834E+00
 -0.1931254E+00   -0.6656320E-01    0.6651455E-01    0.1930809E+00    0.3007459E+00    0.3789698E+00    0.4200957E+00    0.4200980E+00    0.3789767E+00    0.3007577E+00
  0.1930978E+00    0.6653589E-01   -0.8384481E-01   -0.2433233E+00   -0.3789852E+00   -0.4775507E+00   -0.5293713E+00   -0.5293745E+00   -0.4775600E+00   -0.3789994E+00
 -0.2433405E+00   -0.8386223E-01    0.8382468E-01    0.2433055E+00    0.3789688E+00    0.4775345E+00    0.5293543E+00    0.5293557E+00    0.4775390E+00    0.3789766E+00
  0.2433167E+00    0.8383924E-01   -0.9294270E-01   -0.2697259E+00   -0.4201079E+00   -0.5293679E+00   -0.5868106E+00   -0.5868131E+00   -0.5293750E+00   -0.4201186E+00
 -0.2697387E+00   -0.9295540E-01    0.9292651E-01    0.2697113E+00    0.4200940E+00    0.5293538E+00    0.5867954E+00    0.5867963E+00    0.5293565E+00    0.4200987E+00
  0.2697183E+00    0.9293598E-01   -0.9294303E-01   -0.2697260E+00   -0.4201077E+00   -0.5293673E+00   -0.5868094E+00   -0.5868112E+00   -0.5293724E+00   -0.4201155E+00
 -0.2697352E+00   -0.9295175E-01    0.9292986E-01    0.2697142E+00    0.4200963E+00    0.5293553E+00    0.5867964E+00    0.5867969E+00    0.5293566E+00    0.4200987E+00
  0.2697182E+00    0.9293591E-01   -0.8384591E-01   -0.2433238E+00   -0.3789847E+00   -0.4775489E+00   -0.5293678E+00   -0.5293691E+00   -0.4775524E+00   -0.3789899E+00
 -0.2433297E+00   -0.8385105E-01    0.8383509E-01    0.2433143E+00    0.3789754E+00    0.4775391E+00    0.5293572E+00    0.5293572E+00    0.4775394E+00    0.3789762E+00
  0.2433157E+00    0.8383806E-01   -0.6654087E-01   -0.1931032E+00   -0.3007643E+00   -0.3789850E+00   -0.4201085E+00   -0.4201091E+00   -0.3789869E+00   -0.3007671E+00
 -0.1931064E+00   -0.6654341E-01    0.6653294E-01    0.1930961E+00    0.3007572E+00    0.3789776E+00    0.4201002E+00    0.4201001E+00    0.3789770E+00    0.3007565E+00
  0.1930957E+00    0.6653331E-01   -0.4272310E-01   -0.1239811E+00   -0.1931034E+00   -0.2433239E+00   -0.2697264E+00   -0.2697264E+00   -0.2433240E+00   -0.1931036E+00
 -0.1239811E+00   -0.4272274E-01    0.4271732E-01    0.1239758E+00    0.1930983E+00    0.2433185E+00    0.2697207E+00    0.2697203E+00    0.2433173E+00    0.1930966E+00
  0.1239741E+00    0.4271605E-01   -0.1472416E-01   -0.4272331E-01   -0.6654073E-01   -0.8384493E-01   -0.9294190E-01   -0.9294120E-01   -0.8384300E-01   -0.6653788E-01
 -0.4271989E-01   -0.1472047E-01    0.1471991E-01    0.4271938E-01    0.6653700E-01    0.8384145E-01    0.9293864E-01    0.9293796E-01    0.8383976E-01    0.6653449E-01
  0.4271605E-01    0.1471638E-01    0.1471642E-01    0.4271641E-01    0.6653514E-01    0.8384117E-01    0.9294038E-01    0.9294197E-01    0.8384567E-01    0.6654161E-01
  0.4272345E-01    0.1472302E-01   -0.1471846E-01   -0.4271889E-01   -0.6653737E-01   -0.8384272E-01   -0.9294115E-01   -0.9294187E-01   -0.8384494E-01   -0.6654094E-01
 -0.4272356E-01   -0.1472445E-01    0.4271503E-01    0.1239735E+00    0.1930973E+00    0.2433198E+00    0.2697249E+00    0.2697278E+00    0.2433278E+00    0.1931086E+00
  0.1239859E+00    0.4272589E-01   -0.4271608E-01   -0.1239755E+00   -0.1930987E+00   -0.2433200E+00   -0.2697231E+00   -0.2697242E+00   -0.2433228E+00   -0.1931030E+00
 -0.1239814E+00   -0.4272393E-01    0.6653073E-01    0.1930940E+00    0.3007567E+00    0.3789799E+00    0.4201067E+00    0.4201113E+00    0.3789926E+00    0.3007748E+00
  0.1931138E+00    0.6654805E-01   -0.6653176E-01   -0.1930964E+00   -0.3007584E+00   -0.3789793E+00   -0.4201029E+00   -0.4201045E+00   -0.3789828E+00   -0.3007635E+00
 -0.1931046E+00   -0.6654328E-01    0.8383394E-01    0.2433126E+00    0.3789752E+00    0.4775420E+00    0.5293652E+00    0.5293718E+00    0.4775602E+00    0.3790015E+00
  0.2433424E+00    0.8386195E-01   -0.8383345E-01   -0.2433156E+00   -0.3789780E+00   -0.4775419E+00   -0.5293602E+00   -0.5293626E+00   -0.4775461E+00   -0.3789834E+00
 -0.2433261E+00   -0.8385039E-01    0.9292852E-01    0.2697117E+00    0.4200954E+00    0.5293574E+00    0.5868040E+00    0.5868124E+00    0.5293796E+00    0.4201284E+00
  0.2697563E+00    0.9298928E-01   -0.9292663E-01   -0.2697189E+00   -0.4201029E+00   -0.5293613E+00   -0.5868005E+00   -0.5868045E+00   -0.5293654E+00   -0.4201055E+00
 -0.2697298E+00   -0.9295009E-01   -0.7451564E-01   -0.5915375E-01   -0.3425915E-01   -0.9314923E-02    0.6026445E-02    0.5958091E-02   -0.9464172E-02   -0.3451464E-01
 -0.5963971E-01   -0.7564449E-01   -0.7513590E-01   -0.5963129E-01   -0.3450523E-01   -0.9665555E-02    0.5728237E-02    0.5962281E-02   -0.9565806E-02   -0.3452304E-01
 -0.5913455E-01   -0.7464078E-01   -0.5918511E-01   -0.4382756E-01   -0.1892623E-01    0.5997648E-02    0.2134981E-01    0.2129296E-01    0.5836328E-02   -0.1921631E-01
 -0.4428678E-01   -0.5982495E-01   -0.5976779E-01   -0.4429119E-01   -0.1918722E-01    0.5702489E-02    0.2111762E-01    0.2130217E-01    0.5827972E-02   -0.1911056E-01
 -0.4380382E-01   -0.5925216E-01   -0.3430043E-01   -0.1894258E-01    0.5933802E-02    0.3085052E-01    0.4622808E-01    0.4615111E-01    0.3069615E-01    0.5681281E-02
 -0.1936987E-01   -0.3478774E-01   -0.3479175E-01   -0.1939429E-01    0.5686906E-02    0.3063617E-01    0.4600702E-01    0.4617689E-01    0.3078115E-01    0.5779630E-02
 -0.1893609E-01   -0.3428784E-01   -0.9346832E-02    0.5990770E-02    0.3086170E-01    0.5579255E-01    0.7114586E-01    0.7106700E-01    0.5564429E-01    0.3060825E-01
  0.5580402E-02   -0.9769721E-02   -0.9827638E-02    0.5543746E-02    0.3064614E-01    0.5555379E-01    0.7092245E-01    0.7113417E-01    0.5568710E-01    0.3068756E-01