 TITLE = "NAVIER-STOKES OUTPUT"
 VARIABLES = "X", "Y", "U", "V", "P", "Pex", "Vor"
 ZONE I =   21, J =   21, DATAPACKING = BLOCK, VARLOCATION=(3=CELLCENTERED, 4=CELLCENTERED,5=CELLCENTERED,6=CELLCENTERED, 7=CELLCENTERED)
  0.0000000E+00    0.3141593E+00    0.6283185E+00    0.9424778E+00    0.1256637E+01    0.1570796E+01    0.1884956E+01    0.2199115E+01    0.2513274E+01    0.2827433E+01
  0.3141593E+01    0.3455752E+01    0.3769911E+01    0.4084071E+01    0.4398230E+01    0.4712389E+01    0.5026548E+01    0.5340708E+01    0.5654867E+01    0.5969026E+01
  0.6283185E+01    0.0000000E+00    0.3141593E+00    0.6283185E+00    0.9424778E+00    0.1256637E+01    0.1570796E+01    0.1884956E+01    0.2199115E+01    0.2513274E+01
  0.2827433E+01    0.3141593E+01    0.3455752E+01    0.3769911E+01    0.4084071E+01    0.4398230E+01    0.4712389E+01    0.5026548E+01    0.5340708E+01    0.5654867E+01
  0.5969026E+01    0.6283185E+01    0.0000000E+00    0.3141593E+00    0.6283185E+00    0.9424778E+00    0.1256637E+01    0.1570796E+01    0.1884956E+01    0.2199115E+01
  0.2513274E+01    0.2827433E+01    0.3141593E+01    0.3455752E+01    0.3769911E+01    0.4084071E+01    0.4398230E+01    0.4712389E+01    0.5026548E+01    0.5340708E+01
  0.5654867E+01    0.5969026E+01    0.6283185E+01    0.0000000E+00    0.3141593E+00    0.6283185E+00    0.9424778E+00    0.1256637E+01    0.1570796E+01    0.1884956E+01
  0.2199115E+01    0.2513274E+01    0.2827433E+01    0.3141593E+01    0.3455752E+01    0.3769911E+01    0.4084071E+01    0.4398230E+01    0.4712389E+01    0.5026548E+01
  0.5340708E+01    0.5654867E+01    0.5969026E+01    0.6283185E+01    0.0000000E+00    0.3141593E+00    0.6283185E+00    0.9424778E+00    0.1256637E+01    0.1570796E+01
  0.1884956E+01    0.2199115E+01    0.2513274E+01    0.2827433E+01    0.3141593E+01    0.3455752E+01    0.3769911E+01    0.4084071E+01    0.4398230E+01    0.4712389E+01
  0.5026548E+01    0.5340708E+01    0.5654867E+01    0.5969026E+01    0.6283185E+01    0.0000000E+00    0.3141593E+00    0.6283185E+00    0.9424778E+00    0.1256637E+01
  0.1570796E+01    0.1884956E+01    0.2199115E+01    0.2513274E+01    0.2827433E+01    0.3141593E+01    0.3455752E+01    0.3769911E+01    0.4084071E+01    0.4398230E+01
  0.4712389E+01    0.5026548E+01    0.5340708E+01    0.5654867E+01    0.5969026E+01    0.6283185E+01    0.0000000E+00    0.3141593E+00    0.6283185E+00    0.9424778E+00
  0.1256637E+01    0.1570796E+01    0.1884956E+01    0.2199115E+01    0.2513274E+01    0.2827433E+01    0.3141593E+01    0.3455752E+01    0.3769911E+01    0.4084071E+01
  0.4398230E+01    0.4712389E+01    0.5026548E+01    0.5340708E+01    0.5654867E+01    0.5969026E+01    0.6283185E+01    0.0000000E+00    0.3141593E+00    0.6283185E+00
  0.9424778E+00    0.1256637E+01    0.1570796E+01    0.1884956E+01    0.2199115E+01    0.2513274E+01    0.2827433E+01    0.3141593E+01    0.3455752E+01    0.3769911E+01
  0.4084071E+01    0.4398230E+01    0.4712389E+01    0.5026548E+01    0.5340708E+01    0.5654867E+01    0.5969026E+01    0.6283185E+01    0.0000000E+00    0.3141593E+00
  0.6283185E+00    0.9424778E+00    0.1256637E+01    0.1570796E+01    0.1884956E+01    0.2199115E+01    0.2513274E+01    0.2827433E+01    0.3141593E+01    0.3455752E+01
  0.3769911E+01    0.4084071E+01    0.4398230E+01    0.4712389E+01    0.5026548E+01    0.5340708E+01    0.5654867E+01    0.5969026E+01    0.6283185E+01    0.0000000E+00
  0.3141593E+00    0.6283185E+00    0.9424778E+00    0.1256637E+01    0.1570796E+01    0.1884956E+01    0.2199115E+01    0.2513274E+01    0.2827433E+01    0.3141593E+01
  0.3455752E+01    0.3769911E+01    0.4084071E+01    0.4398230E+01    0.4712389E+01    0.5026548E+01    0.5340708E+01    0.5654867E+01    0.5969026E+01    0.6283185E+01
  0.0000000E+00    0.3141593E+00    0.6283185E+00    0.9424778E+00    0.1256637E+01    0.1570796E+01    0.1884956E+01    0.2199115E+01    0.2513274E+01    0.2827433E+01
  0.3141593E+01    0.3455752E+01    0.3769911E+01    0.4084071E+01    0.4398230E+01    0.4712389E+01    0.5026548E+01    0.5340708E+01    0.5654867E+01    0.5969026E+01
  0.6283185E+01    0.0000000E+00    0.3141593E+00    0.6283185E+00    0.9424778E+00    0.1256637E+01    0.1570796E+01    0.1884956E+01    0.2199115E+01    0.2513274E+01
  0.2827433E+01    0.3141593E+01    0.3455752E+01    0.3769911E+01    0.4084071E+01    0.4398230E+01    0.4712389E+01    0.5026548E+01    0.5340708E+01    0.5654867E+01
  0.5969026E+01    0.6283185E+01    0.0000000E+00    0.3141593E+00    0.6283185E+00    0.9424778E+00    0.1256637E+01    0.1570796E+01    0.1884956E+01    0.2199115E+01
  0.2513274E+01    0.2827433E+01    0.3141593E+01    0.3455752E+01    0.3769911E+01    0.4084071E+01    0.4398230E+01    0.4712389E+01    0.5026548E+01    0.5340708E+01
  0.5654867E+01    0.5969026E+01    0.6283185E+01    0.0000000E+00    0.3141593E+00    0.6283185E+00    0.9424778E+00    0.1256637E+01    0.1570796E+01    0.1884956E+01
  0.2199115E+01    0.2513274E+01    0.2827433E+01    0.3141593E+01    0.3455752E+01    0.3769911E+01    0.4084071E+01    0.4398230E+01    0.4712389E+01    0.5026548E+01
  0.5340708E+01    0.5654867E+01    0.5969026E+01    0.6283185E+01    0.0000000E+00    0.3141593E+00    0.6283185E+00    0.9424778E+00    0.1256637E+01    0.1570796E+01
  0.1884956E+01    0.2199115E+01    0.2513274E+01    0.2827433E+01    0.3141593E+01    0.3455752E+01    0.3769911E+01    0.4084071E+01    0.4398230E+01    0.4712389E+01
  0.5026548E+01    0.5340708E+01    0.5654867E+01    0.5969026E+01    0.6283185E+01    0.0000000E+00    0.3141593E+00    0.6283185E+00    0.9424778E+00    0.1256637E+01
  0.1570796E+01    0.1884956E+01    0.2199115E+01    0.2513274E+01    0.2827433E+01    0.3141593E+01    0.3455752E+01    0.3769911E+01    0.4084071E+01    0.4398230E+01
  0.4712389E+01    0.5026548E+01    0.5340708E+01    0.5654867E+01    0.5969026E+01    0.6283185E+01    0.0000000E+00    0.3141593E+00    0.6283185E+00    0.9424778E+00
  0.1256637E+01    0.1570796E+01    0.1884956E+01    0.2199115E+01    0.2513274E+01    0.2827433E+01    0.3141593E+01    0.3455752E+01    0.3769911E+01    0.4084071E+01
  0.4398230E+01    0.4712389E+01    0.5026548E+01    0.5340708E+01    0.5654867E+01    0.5969026E+01    0.6283185E+01    0.0000000E+00    0.3141593E+00    0.6283185E+00
  0.9424778E+00    0.1256637E+01    0.1570796E+01    0.1884956E+01    0.2199115E+01    0.2513274E+01    0.2827433E+01    0.3141593E+01    0.3455752E+01    0.3769911E+01
  0.4084071E+01    0.4398230E+01    0.4712389E+01    0.5026548E+01    0.5340708E+01    0.5654867E+01    0.5969026E+01    0.6283185E+01    0.0000000E+00    0.3141593E+00
  0.6283185E+00    0.9424778E+00    0.1256637E+01    0.1570796E+01    0.1884956E+01    0.2199115E+01    0.2513274E+01    0.2827433E+01    0.3141593E+01    0.3455752E+01
  0.3769911E+01    0.4084071E+01    0.4398230E+01    0.4712389E+01    0.5026548E+01    0.5340708E+01    0.5654867E+01    0.5969026E+01    0.6283185E+01    0.0000000E+00
  0.3141593E+00    0.6283185E+00    0.9424778E+00    0.1256637E+01    0.1570796E+01    0.1884956E+01    0.2199115E+01    0.2513274E+01    0.2827433E+01    0.3141593E+01
  0.3455752E+01    0.3769911E+01    0.4084071E+01    0.4398230E+01    0.4712389E+01    0.5026548E+01    0.5340708E+01    0.5654867E+01    0.5969026E+01    0.6283185E+01
  0.0000000E+00    0.3141593E+00    0.6283185E+00    0.9424778E+00    0.1256637E+01    0.1570796E+01    0.1884956E+01    0.2199115E+01    0.2513274E+01    0.2827433E+01
  0.3141593E+01    0.3455752E+01    0.3769911E+01    0.4084071E+01    0.4398230E+01    0.4712389E+01    0.5026548E+01    0.5340708E+01    0.5654867E+01    0.5969026E+01
  0.6283185E+01    0.0000000E+00    0.0000000E+00    0.0000000E+00    0.0000000E+00    0.0000000E+00    0.0000000E+00    0.0000000E+00    0.0000000E+00    0.0000000E+00
  0.0000000E+00    0.0000000E+00    0.0000000E+00    0.0000000E+00    0.0000000E+00    0.0000000E+00    0.0000000E+00    0.0000000E+00    0.0000000E+00    0.0000000E+00
  0.0000000E+00    0.0000000E+00    0.3141593E+00    0.3141593E+00    0.3141593E+00    0.3141593E+00    0.3141593E+00    0.3141593E+00    0.3141593E+00    0.3141593E+00
  0.3141593E+00    0.3141593E+00    0.3141593E+00    0.3141593E+00    0.3141593E+00    0.3141593E+00    0.3141593E+00    0.3141593E+00    0.3141593E+00    0.3141593E+00
  0.3141593E+00    0.3141593E+00    0.3141593E+00    0.6283185E+00    0.6283185E+00    0.6283185E+00    0.6283185E+00    0.6283185E+00    0.6283185E+00    0.6283185E+00
  0.6283185E+00    0.6283185E+00    0.6283185E+00    0.6283185E+00    0.6283185E+00    0.6283185E+00    0.6283185E+00    0.6283185E+00    0.6283185E+00    0.6283185E+00
  0.6283185E+00    0.6283185E+00    0.6283185E+00    0.6283185E+00    0.9424778E+00    0.9424778E+00    0.9424778E+00    0.9424778E+00    0.9424778E+00    0.9424778E+00
  0.9424778E+00    0.9424778E+00    0.9424778E+00    0.9424778E+00    0.9424778E+00    0.9424778E+00    0.9424778E+00    0.9424778E+00    0.9424778E+00    0.9424778E+00
  0.9424778E+00    0.9424778E+00    0.9424778E+00    0.9424778E+00    0.9424778E+00    0.1256637E+01    0.1256637E+01    0.1256637E+01    0.1256637E+01    0.1256637E+01
  0.1256637E+01    0.1256637E+01    0.1256637E+01    0.1256637E+01    0.1256637E+01    0.1256637E+01    0.1256637E+01    0.1256637E+01    0.1256637E+01    0.1256637E+01
  0.1256637E+01    0.1256637E+01    0.1256637E+01    0.1256637E+01    0.1256637E+01    0.1256637E+01    0.1570796E+01    0.1570796E+01    0.1570796E+01    0.1570796E+01
  0.1570796E+01    0.1570796E+01    0.1570796E+01    0.1570796E+01    0.1570796E+01    0.1570796E+01    0.1570796E+01    0.1570796E+01    0.1570796E+01    0.1570796E+01
  0.1570796E+01    0.1570796E+01    0.1570796E+01    0.1570796E+01    0.1570796E+01    0.1570796E+01    0.1570796E+01    0.1884956E+01    0.1884956E+01    0.1884956E+01
  0.1884956E+01    0.1884956E+01    0.1884956E+01    0.1884956E+01    0.1884956E+01    0.1884956E+01    0.1884956E+01    0.1884956E+01    0.1884956E+01    0.1884956E+01
  0.1884956E+01    0.1884956E+01    0.1884956E+01    0.1884956E+01    0.1884956E+01    0.1884956E+01    0.1884956E+01    0.1884956E+01    0.2199115E+01    0.2199115E+01
  0.2199115E+01    0.2199115E+01    0.2199115E+01    0.2199115E+01    0.2199115E+01    0.2199115E+01    0.2199115E+01    0.2199115E+01    0.2199115E+01    0.2199115E+01
  0.2199115E+01    0.2199115E+01    0.2199115E+01    0.2199115E+01    0.2199115E+01    0.2199115E+01    0.2199115E+01    0.2199115E+01    0.2199115E+01    0.2513274E+01
  0.2513274E+01    0.2513274E+01    0.2513274E+01    0.2513274E+01    0.2513274E+01    0.2513274E+01    0.2513274E+01    0.2513274E+01    0.2513274E+01    0.2513274E+01
  0.2513274E+01    0.2513274E+01    0.2513274E+01    0.2513274E+01    0.2513274E+01    0.2513274E+01    0.2513274E+01    0.2513274E+01    0.2513274E+01    0.2513274E+01
  0.2827433E+01    0.2827433E+01    0.2827433E+01    0.2827433E+01    0.2827433E+01    0.2827433E+01    0.2827433E+01    0.2827433E+01    0.2827433E+01    0.2827433E+01
  0.2827433E+01    0.2827433E+01    0.2827433E+01    0.2827433E+01    0.2827433E+01    0.2827433E+01    0.2827433E+01    0.2827433E+01    0.2827433E+01    0.2827433E+01
  0.2827433E+01    0.3141593E+01    0.3141593E+01    0.3141593E+01    0.3141593E+01    0.3141593E+01    0.3141593E+01    0.3141593E+01    0.3141593E+01    0.3141593E+01
  0.3141593E+01    0.3141593E+01    0.3141593E+01    0.3141593E+01    0.3141593E+01    0.3141593E+01    0.3141593E+01    0.3141593E+01    0.3141593E+01    0.3141593E+01
  0.3141593E+01    0.3141593E+01    0.3455752E+01    0.3455752E+01    0.3455752E+01    0.3455752E+01    0.3455752E+01    0.3455752E+01    0.3455752E+01    0.3455752E+01
  0.3455752E+01    0.3455752E+01    0.3455752E+01    0.3455752E+01    0.3455752E+01    0.3455752E+01    0.3455752E+01    0.3455752E+01    0.3455752E+01    0.3455752E+01
  0.3455752E+01    0.3455752E+01    0.3455752E+01    0.3769911E+01    0.3769911E+01    0.3769911E+01    0.3769911E+01    0.3769911E+01    0.3769911E+01    0.3769911E+01
  0.3769911E+01    0.3769911E+01    0.3769911E+01    0.3769911E+01    0.3769911E+01    0.3769911E+01    0.3769911E+01    0.3769911E+01    0.3769911E+01    0.3769911E+01
  0.3769911E+01    0.3769911E+01    0.3769911E+01    0.3769911E+01    0.4084071E+01    0.4084071E+01    0.4084071E+01    0.4084071E+01    0.4084071E+01    0.4084071E+01
  0.4084071E+01    0.4084071E+01    0.4084071E+01    0.4084071E+01    0.4084071E+01    0.4084071E+01    0.4084071E+01    0.4084071E+01    0.4084071E+01    0.4084071E+01
  0.4084071E+01    0.4084071E+01    0.4084071E+01    0.4084071E+01    0.4084071E+01    0.4398230E+01    0.4398230E+01    0.4398230E+01    0.4398230E+01    0.4398230E+01
  0.4398230E+01    0.4398230E+01    0.4398230E+01    0.4398230E+01    0.4398230E+01    0.4398230E+01    0.4398230E+01    0.4398230E+01    0.4398230E+01    0.4398230E+01
  0.4398230E+01    0.4398230E+01    0.4398230E+01    0.4398230E+01    0.4398230E+01    0.4398230E+01    0.4712389E+01    0.4712389E+01    0.4712389E+01    0.4712389E+01
  0.4712389E+01    0.4712389E+01    0.4712389E+01    0.4712389E+01    0.4712389E+01    0.4712389E+01    0.4712389E+01    0.4712389E+01    0.4712389E+01    0.4712389E+01
  0.4712389E+01    0.4712389E+01    0.4712389E+01    0.4712389E+01    0.4712389E+01    0.4712389E+01    0.4712389E+01    0.5026548E+01    0.5026548E+01    0.5026548E+01
  0.5026548E+01    0.5026548E+01    0.5026548E+01    0.5026548E+01    0.5026548E+01    0.5026548E+01    0.5026548E+01    0.5026548E+01    0.5026548E+01    0.5026548E+01
  0.5026548E+01    0.5026548E+01    0.5026548E+01    0.5026548E+01    0.5026548E+01    0.5026548E+01    0.5026548E+01    0.5026548E+01    0.5340708E+01    0.5340708E+01
  0.5340708E+01    0.5340708E+01    0.5340708E+01    0.5340708E+01    0.5340708E+01    0.5340708E+01    0.5340708E+01    0.5340708E+01    0.5340708E+01    0.5340708E+01
  0.5340708E+01    0.5340708E+01    0.5340708E+01    0.5340708E+01    0.5340708E+01    0.5340708E+01    0.5340708E+01    0.5340708E+01    0.5340708E+01    0.5654867E+01
  0.5654867E+01    0.5654867E+01    0.5654867E+01    0.5654867E+01    0.5654867E+01    0.5654867E+01    0.5654867E+01    0.5654867E+01    0.5654867E+01    0.5654867E+01
  0.5654867E+01    0.5654867E+01    0.5654867E+01    0.5654867E+01    0.5654867E+01    0.5654867E+01    0.5654867E+01    0.5654867E+01    0.5654867E+01    0.5654867E+01
  0.5969026E+01    0.5969026E+01    0.5969026E+01    0.5969026E+01    0.5969026E+01    0.5969026E+01    0.5969026E+01    0.5969026E+01    0.5969026E+01    0.5969026E+01
  0.5969026E+01    0.5969026E+01    0.5969026E+01    0.5969026E+01    0.5969026E+01    0.5969026E+01    0.5969026E+01    0.5969026E+01    0.5969026E+01    0.5969026E+01
  0.5969026E+01    0.6283185E+01    0.6283185E+01    0.6283185E+01    0.6283185E+01    0.6283185E+01    0.6283185E+01    0.6283185E+01    0.6283185E+01    0.6283185E+01
  0.6283185E+01    0.6283185E+01    0.6283185E+01    0.6283185E+01    0.6283185E+01    0.6283185E+01    0.6283185E+01    0.6283185E+01    0.6283185E+01    0.6283185E+01
  0.6283185E+01    0.6283185E+01   -0.1559118E-01   -0.1406522E-01   -0.1116237E-01   -0.7166646E-02   -0.2469201E-02    0.2470128E-02    0.7168284E-02    0.1116567E-01
  0.1407106E-01    0.1559293E-01    0.1558823E-01    0.1406389E-01    0.1116223E-01    0.7166925E-02    0.2469567E-02   -0.2469426E-02   -0.7166979E-02   -0.1116318E-01
 -0.1406639E-01   -0.1559281E-01   -0.4524738E-01   -0.4081763E-01   -0.3239228E-01   -0.2079589E-01   -0.7163537E-02    0.7170368E-02    0.2080286E-01    0.3239938E-01
  0.4082406E-01    0.4524972E-01    0.4524596E-01    0.4081609E-01    0.3239137E-01    0.2079576E-01    0.7164219E-02   -0.7168757E-02   -0.2080021E-01   -0.3239586E-01
 -0.4082038E-01   -0.4524914E-01   -0.7047429E-01   -0.6357455E-01   -0.5045153E-01   -0.3238967E-01   -0.1115694E-01    0.1116824E-01    0.3240051E-01    0.5046112E-01
  0.6358162E-01    0.7047703E-01    0.7047356E-01    0.6357298E-01    0.5045022E-01    0.3238916E-01    0.1115757E-01   -0.1116630E-01   -0.3239746E-01   -0.5045755E-01
 -0.6357851E-01   -0.7047602E-01   -0.8880224E-01   -0.8010825E-01   -0.6357234E-01   -0.4081316E-01   -0.1405859E-01    0.1407244E-01    0.4082609E-01    0.6358316E-01
  0.8011578E-01    0.8880539E-01    0.8880197E-01    0.8010680E-01    0.6357082E-01    0.4081226E-01    0.1405890E-01   -0.1407078E-01   -0.4082348E-01   -0.6358019E-01
 -0.8011339E-01   -0.8880478E-01   -0.9843834E-01   -0.8880069E-01   -0.7047044E-01   -0.4524180E-01   -0.1558432E-01    0.1559886E-01    0.4525511E-01    0.7048122E-01
  0.8880776E-01    0.9844068E-01    0.9843748E-01    0.8879897E-01    0.7046857E-01    0.4524048E-01    0.1558409E-01   -0.1559795E-01   -0.4525340E-01   -0.7047931E-01
 -0.8880659E-01   -0.9844115E-01   -0.9843843E-01   -0.8880071E-01   -0.7047047E-01   -0.4524191E-01   -0.1558462E-01    0.1559828E-01    0.4525427E-01    0.7048019E-01
  0.8880670E-01    0.9843989E-01    0.9843696E-01    0.8879855E-01    0.7046823E-01    0.4524013E-01    0.1558367E-01   -0.1559828E-01   -0.4525363E-01   -0.7047951E-01
 -0.8880653E-01   -0.9844070E-01   -0.8880203E-01   -0.8010804E-01   -0.6357223E-01   -0.4081336E-01   -0.1405934E-01    0.1407098E-01    0.4082381E-01    0.6358023E-01
  0.8011278E-01    0.8880305E-01    0.8880047E-01    0.8010567E-01    0.6356970E-01    0.4081106E-01    0.1405767E-01   -0.1407189E-01   -0.4082434E-01   -0.6358075E-01
 -0.8011366E-01   -0.8880483E-01   -0.7047396E-01   -0.6357403E-01   -0.5045108E-01   -0.3238961E-01   -0.1115761E-01    0.1116655E-01    0.3239746E-01    0.5045687E-01
  0.6357700E-01    0.7047351E-01    0.7047146E-01    0.6357121E-01    0.5044814E-01    0.3238688E-01    0.1115537E-01   -0.1116834E-01   -0.3239902E-01   -0.5045848E-01
 -0.6357912E-01   -0.7047655E-01   -0.4524690E-01   -0.4081677E-01   -0.3239127E-01   -0.2079509E-01   -0.7163445E-02    0.7169311E-02    0.2080016E-01    0.3239469E-01
  0.4081800E-01    0.4524561E-01    0.4524406E-01    0.4081364E-01    0.3238813E-01    0.2079213E-01    0.7160716E-02   -0.7171741E-02   -0.2080246E-01   -0.3239715E-01
 -0.4082074E-01   -0.4524864E-01   -0.1559016E-01   -0.1406377E-01   -0.1116052E-01   -0.7164812E-02   -0.2467878E-02    0.2470595E-02    0.7167039E-02    0.1116166E-01
  0.1406362E-01    0.1558873E-01    0.1558767E-01    0.1406081E-01    0.1115746E-01    0.7161694E-02    0.2464895E-02   -0.2473410E-02   -0.7169943E-02   -0.1116471E-01
 -0.1406687E-01   -0.1559248E-01    0.1559150E-01    0.1406561E-01    0.1116267E-01    0.7166888E-02    0.2469475E-02   -0.2469791E-02   -0.7167514E-02   -0.1116376E-01
 -0.1406735E-01   -0.1559415E-01   -0.1559456E-01   -0.1406860E-01   -0.1116572E-01   -0.7169934E-02   -0.2472470E-02    0.2466706E-02    0.7164278E-02    0.1116033E-01
  0.1406354E-01    0.1558984E-01    0.4524766E-01    0.4081827E-01    0.3239319E-01    0.2079714E-01    0.7165131E-02   -0.7168412E-02   -0.2080035E-01   -0.3239638E-01
 -0.4082138E-01   -0.4525053E-01   -0.4525043E-01   -0.4082110E-01   -0.3239595E-01   -0.2079991E-01   -0.7168098E-02    0.7165297E-02    0.2079703E-01    0.3239277E-01
  0.4081764E-01    0.4524689E-01    0.7047501E-01    0.6357551E-01    0.5045292E-01    0.3239156E-01    0.1115931E-01   -0.1116535E-01   -0.3239720E-01   -0.5045798E-01
 -0.6357953E-01   -0.7047760E-01   -0.7047705E-01   -0.6357771E-01   -0.5045518E-01   -0.3239409E-01   -0.1116206E-01    0.1116235E-01    0.3239378E-01    0.5045434E-01
  0.6357586E-01    0.7047374E-01    0.8880259E-01    0.8010912E-01    0.6357374E-01    0.4081509E-01    0.1406103E-01   -0.1406953E-01   -0.4082303E-01   -0.6358049E-01
 -0.8011426E-01   -0.8880603E-01   -0.8880485E-01   -0.8011100E-01   -0.6357565E-01   -0.4081718E-01   -0.1406345E-01    0.1406658E-01    0.4081964E-01    0.6357687E-01
  0.8011041E-01    0.8880204E-01    0.9843813E-01    0.8880108E-01    0.7047137E-01    0.4524323E-01    0.1558615E-01   -0.1559677E-01   -0.4525299E-01   -0.7047956E-01
 -0.8880712E-01   -0.9844153E-01   -0.9843992E-01   -0.8880257E-01   -0.7047272E-01   -0.4524481E-01   -0.1558833E-01    0.1559400E-01    0.4524974E-01    0.7047597E-01
  0.8880360E-01    0.9843852E-01    0.9843836E-01    0.8880079E-01    0.7047082E-01    0.4524252E-01    0.1558536E-01   -0.1559747E-01   -0.4525354E-01   -0.7047991E-01
 -0.8880703E-01   -0.9844107E-01   -0.9843918E-01   -0.8880141E-01   -0.7047146E-01   -0.4524368E-01   -0.1558717E-01    0.1559493E-01    0.4525030E-01    0.7047644E-01
  0.8880380E-01    0.9843818E-01    0.8880162E-01    0.8010767E-01    0.6357191E-01    0.4081301E-01    0.1405888E-01   -0.1407152E-01   -0.4082458E-01   -0.6358130E-01
 -0.8011409E-01   -0.8880474E-01   -0.8880248E-01   -0.8010783E-01   -0.6357211E-01   -0.4081364E-01   -0.1406028E-01    0.1406913E-01    0.4082148E-01    0.6357796E-01
  0.8011075E-01    0.8880174E-01    0.7047293E-01    0.6357317E-01    0.5045018E-01    0.3238853E-01    0.1115628E-01   -0.1116816E-01   -0.3239935E-01   -0.5045893E-01
 -0.6357909E-01   -0.7047552E-01   -0.7047334E-01   -0.6357298E-01   -0.5044986E-01   -0.3238867E-01   -0.1115737E-01    0.1116614E-01    0.3239664E-01    0.5045592E-01
  0.6357636E-01    0.7047366E-01    0.4524693E-01    0.4081634E-01    0.3239046E-01    0.2079390E-01    0.7161833E-02   -0.7171244E-02   -0.2080232E-01   -0.3239696E-01
 -0.4082013E-01   -0.4524776E-01   -0.4524619E-01   -0.4081536E-01   -0.3238967E-01   -0.2079375E-01   -0.7162401E-02    0.7169820E-02    0.2080023E-01    0.3239488E-01
  0.4081841E-01    0.4524629E-01    0.1559069E-01    0.1406388E-01    0.1116022E-01    0.7164038E-02    0.2466816E-02   -0.2471760E-02   -0.7168376E-02   -0.1116279E-01
 -0.1406439E-01   -0.1559074E-01   -0.1559059E-01   -0.1406330E-01   -0.1115978E-01   -0.7163631E-02   -0.2466784E-02    0.2471124E-02    0.7167671E-02    0.1116235E-01
  0.1406400E-01    0.1558930E-01    0.1559270E-01    0.4524756E-01    0.7047227E-01    0.8879766E-01    0.9842869E-01    0.9842256E-01    0.8878004E-01    0.7044348E-01
  0.4520758E-01    0.1553430E-01   -0.1563332E-01   -0.4528189E-01   -0.7050102E-01   -0.8882332E-01   -0.9845290E-01   -0.9844686E-01   -0.8880765E-01   -0.7047635E-01
 -0.4524642E-01   -0.1558973E-01    0.1406628E-01    0.4081819E-01    0.6357343E-01    0.8010435E-01    0.8879209E-01    0.8878587E-01    0.8008605E-01    0.6354351E-01
  0.4077749E-01    0.1401673E-01   -0.1410741E-01   -0.4085341E-01   -0.6360318E-01   -0.8013046E-01   -0.8881671E-01   -0.8881110E-01   -0.8011457E-01   -0.6357746E-01
 -0.4081760E-01   -0.1406351E-01    0.1116243E-01    0.3239260E-01    0.5045071E-01    0.6356888E-01    0.7046250E-01    0.7045637E-01    0.6355085E-01    0.5042160E-01
  0.3235424E-01    0.1111887E-01   -0.1120238E-01   -0.3242788E-01   -0.5048118E-01   -0.6359588E-01   -0.7048812E-01   -0.7048277E-01   -0.6358035E-01   -0.5045595E-01
 -0.3239354E-01   -0.1116134E-01    0.7165620E-02    0.2079567E-01    0.3238878E-01    0.4080987E-01    0.4523422E-01    0.4522846E-01    0.4079294E-01    0.3236181E-01
  0.2076099E-01    0.7127151E-02   -0.7203946E-02   -0.2083047E-01   -0.3241971E-01   -0.4083792E-01   -0.4526107E-01   -0.4525611E-01   -0.4082335E-01   -0.3239613E-01
 -0.2079903E-01   -0.7167146E-02    0.2466949E-02    0.7162575E-02    0.1115567E-01    0.1405511E-01    0.1557683E-01    0.1557161E-01    0.1403984E-01    0.1113162E-01
  0.7132096E-02    0.2433442E-02   -0.2503798E-02   -0.7196823E-02   -0.1118701E-01   -0.1408417E-01   -0.1560495E-01   -0.1560053E-01   -0.1407098E-01   -0.1116574E-01
 -0.7168970E-02   -0.2471456E-02   -0.2473688E-02   -0.7172146E-02   -0.1117008E-01   -0.1407629E-01   -0.1560651E-01   -0.1561112E-01   -0.1408965E-01   -0.1119092E-01
 -0.7198333E-02   -0.2502216E-02    0.2437969E-02    0.7138373E-02    0.1113854E-01    0.1404649E-01    0.1557730E-01    0.1558124E-01    0.1405807E-01    0.1115704E-01
  0.7162541E-02    0.2465769E-02   -0.7172347E-02   -0.2080520E-01   -0.3240301E-01   -0.4083070E-01   -0.4526344E-01   -0.4526738E-01   -0.4084215E-01   -0.3242082E-01
 -0.2082741E-01   -0.7196526E-02    0.7137647E-02    0.2077194E-01    0.3237139E-01    0.4080025E-01    0.4523339E-01    0.4523680E-01    0.4081019E-01    0.3238719E-01
  0.2079246E-01    0.7161043E-02   -0.1116939E-01   -0.3240218E-01   -0.5046482E-01   -0.6358930E-01   -0.7049096E-01   -0.7049432E-01   -0.6359903E-01   -0.5047989E-01
 -0.3242096E-01   -0.1118983E-01    0.1113542E-01    0.3236929E-01    0.5043302E-01    0.6355834E-01    0.7046028E-01    0.7046313E-01    0.6356683E-01    0.5044654E-01
  0.3238664E-01    0.1115528E-01   -0.1407361E-01   -0.4082797E-01   -0.6358746E-01   -0.8012422E-01   -0.8881962E-01   -0.8882252E-01   -0.8013254E-01   -0.6360029E-01
 -0.4084395E-01   -0.1409089E-01    0.1404011E-01    0.4079528E-01    0.6355565E-01    0.8009304E-01    0.8878852E-01    0.8879105E-01    0.8010035E-01    0.6356719E-01
  0.4081021E-01    0.1405703E-01   -0.1560043E-01   -0.4525773E-01   -0.7048642E-01   -0.8881708E-01   -0.9845542E-01   -0.9845791E-01   -0.8882436E-01   -0.7049772E-01
 -0.4527173E-01   -0.1561571E-01    0.1556741E-01    0.4522531E-01    0.7045464E-01    0.8878567E-01    0.9842411E-01    0.9842635E-01    0.8879216E-01    0.7046486E-01
  0.4523840E-01    0.1558215E-01   -0.1560082E-01   -0.4525797E-01   -0.7048654E-01   -0.8881704E-01   -0.9845512E-01   -0.9845741E-01   -0.8882372E-01   -0.7049689E-01
 -0.4527089E-01   -0.1561500E-01    0.1556804E-01    0.4522565E-01    0.7045463E-01    0.8878551E-01    0.9842373E-01    0.9842575E-01    0.8879161E-01    0.7046428E-01
  0.4523782E-01    0.1558192E-01   -0.1407468E-01   -0.4082869E-01   -0.6358773E-01   -0.8012393E-01   -0.8881869E-01   -0.8882098E-01   -0.8013045E-01   -0.6359781E-01
 -0.4084138E-01   -0.1408851E-01    0.1404197E-01    0.4079636E-01    0.6355593E-01    0.8009254E-01    0.8878738E-01    0.8878953E-01    0.8009863E-01    0.6356542E-01
  0.4080861E-01    0.1405564E-01   -0.1117112E-01   -0.3240342E-01   -0.5046530E-01   -0.6358885E-01   -0.7048956E-01   -0.7049187E-01   -0.6359563E-01   -0.5047590E-01
 -0.3241669E-01   -0.1118581E-01    0.1113850E-01    0.3237119E-01    0.5043362E-01    0.6355754E-01    0.7045851E-01    0.7046077E-01    0.6356403E-01    0.5044374E-01
  0.3238406E-01    0.1115280E-01   -0.7174785E-02   -0.2080695E-01   -0.3240387E-01   -0.4083044E-01   -0.4526183E-01   -0.4526438E-01   -0.4083791E-01   -0.3241554E-01
 -0.2082167E-01   -0.7191168E-02    0.7141988E-02    0.2077463E-01    0.3237211E-01    0.4079934E-01    0.4523115E-01    0.4523355E-01    0.4080662E-01    0.3238360E-01
  0.2078899E-01    0.7158221E-02   -0.2476710E-02   -0.7174392E-02   -0.1117129E-01   -0.1407618E-01   -0.1560486E-01   -0.1560783E-01   -0.1408472E-01   -0.1118460E-01
 -0.7191284E-02   -0.2495347E-02    0.2443542E-02    0.7141829E-02    0.1113972E-01    0.1404556E-01    0.1557468E-01    0.1557761E-01    0.1405392E-01    0.1115278E-01
  0.7158573E-02    0.2462213E-02    0.2463558E-02    0.7159937E-02    0.1115413E-01    0.1405495E-01    0.1557824E-01    0.1557485E-01    0.1404503E-01    0.1113855E-01
  0.7140274E-02    0.2441706E-02   -0.2497140E-02   -0.7192615E-02   -0.1118546E-01   -0.1408513E-01   -0.1560767E-01   -0.1560431E-01   -0.1407543E-01   -0.1117025E-01
 -0.7173205E-02   -0.2475494E-02    0.7162045E-02    0.2079282E-01    0.3238691E-01    0.4080920E-01    0.4523510E-01    0.4523119E-01    0.4079769E-01    0.3236883E-01
  0.2076991E-01    0.7136562E-02   -0.7196292E-02   -0.2082578E-01   -0.3241817E-01   -0.4083879E-01   -0.4526369E-01   -0.4525996E-01   -0.4082763E-01   -0.3240046E-01
 -0.2080331E-01   -0.7170906E-02    0.1115892E-01    0.3238975E-01    0.5044875E-01    0.6356795E-01    0.7046284E-01    0.7045833E-01    0.6355482E-01    0.5042812E-01
  0.3236359E-01    0.1113005E-01   -0.1119400E-01   -0.3242314E-01   -0.5047963E-01   -0.6359672E-01   -0.7049050E-01   -0.7048610E-01   -0.6358414E-01   -0.5045976E-01
 -0.3239730E-01   -0.1116506E-01    0.1406331E-01    0.4081573E-01    0.6357173E-01    0.8010332E-01    0.8879181E-01    0.8878688E-01    0.8008866E-01    0.6354851E-01
  0.4078656E-01    0.1403126E-01   -0.1409911E-01   -0.4084922E-01   -0.6360216E-01   -0.8013149E-01   -0.8881845E-01   -0.8881366E-01   -0.8011768E-01   -0.6358020E-01
 -0.4082062E-01   -0.1406709E-01    0.1559047E-01    0.4524580E-01    0.7047110E-01    0.8879649E-01    0.9842771E-01    0.9842256E-01    0.8878052E-01    0.7044547E-01
  0.4521426E-01    0.1555729E-01   -0.1562698E-01   -0.4527937E-01   -0.7050149E-01   -0.8882437E-01   -0.9845357E-01   -0.9844888E-01   -0.8880958E-01   -0.7047741E-01
 -0.4524874E-01   -0.1559233E-01    0.9598135E-03    0.1385181E-02    0.2053203E-02    0.2691725E-02    0.3146503E-02    0.3142633E-02    0.2631765E-02    0.1922769E-02
  0.1116865E-02    0.4427482E-03    0.6820402E-03    0.1179540E-02    0.1848016E-02    0.2653762E-02    0.3111005E-02    0.3089629E-02    0.2788814E-02    0.2086357E-02
  0.1307892E-02    0.1015363E-02    0.1392719E-02    0.1818730E-02    0.2496527E-02    0.3144870E-02    0.3618750E-02    0.3631473E-02    0.3123669E-02    0.2408438E-02
  0.1603707E-02    0.1059044E-02    0.1166446E-02    0.1604105E-02    0.2288363E-02    0.3106199E-02    0.3536039E-02    0.3550634E-02    0.3239606E-02    0.2493360E-02
  0.1749674E-02    0.1438502E-02    0.2073357E-02    0.2505080E-02    0.3214636E-02    0.3877236E-02    0.4343481E-02    0.4355899E-02    0.3844965E-02    0.3106105E-02
  0.2322473E-02    0.1817962E-02    0.1874161E-02    0.2325115E-02    0.3013823E-02    0.3801330E-02    0.4258651E-02    0.4231825E-02    0.3873479E-02    0.3211509E-02
  0.2447518E-02    0.2060232E-02    0.2710036E-02    0.3154136E-02    0.3885478E-02    0.4545871E-02    0.5022588E-02    0.5027368E-02    0.4510806E-02    0.3795266E-02
  0.3032567E-02    0.2526875E-02    0.2605259E-02    0.3046544E-02    0.3713920E-02    0.4528828E-02    0.4950668E-02    0.4898954E-02    0.4619267E-02    0.3920123E-02