 TITLE = "NAVIER-STOKES OUTPUT"
 VARIABLES = "X", "Y", "U", "V", "P", "Pex", "Vor"
 ZONE I =   21, J =   21, DATAPACKING = BLOCK, VARLOCATION=(3=CELLCENTERED, 4=CELLCENTERED,5=CELLCENTERED,6=CELLCENTERED, 7=CELLCENTERED)
  0.0000000E+00    0.3141593E+00    0.6283185E+00    0.9424778E+00    0.1256637E+01    0.1570796E+01    0.1884956E+01    0.2199115E+01    0.2513274E+01    0.2827433E+01
  0.3141593E+01    0.3455752E+01    0.3769911E+01    0.4084071E+01    0.4398230E+01    0.4712389E+01    0.5026548E+01    0.5340708E+01    0.5654867E+01    0.5969026E+01
  0.6283185E+01    0.0000000E+00    0.3141593E+00    0.6283185E+00    0.9424778E+00    0.1256637E+01    0.1570796E+01    0.1884956E+01    0.2199115E+01    0.2513274E+01
  0.2827433E+01    0.3141593E+01    0.3455752E+01    0.3769911E+01    0.4084071E+01    0.4398230E+01    0.4712389E+01    0.5026548E+01    0.5340708E+01    0.5654867E+01
  0.5969026E+01    0.6283185E+01    0.0000000E+00    0.3141593E+00    0.6283185E+00    0.9424778E+00    0.1256637E+01    0.1570796E+01    0.1884956E+01    0.2199115E+01
  0.2513274E+01    0.2827433E+01    0.3141593E+01    0.3455752E+01    0.3769911E+01    0.4084071E+01    0.4398230E+01    0.4712389E+01    0.5026548E+01    0.5340708E+01
  0.5654867E+01    0.5969026E+01    0.6283185E+01    0.0000000E+00    0.3141593E+00    0.6283185E+00    0.9424778E+00    0.1256637E+01    0.1570796E+01    0.1884956E+01
  0.2199115E+01    0.2513274E+01    0.2827433E+01    0.3141593E+01    0.3455752E+01    0.3769911E+01    0.4084071E+01    0.4398230E+01    0.4712389E+01    0.5026548E+01
  0.5340708E+01    0.5654867E+01    0.5969026E+01    0.6283185E+01    0.0000000E+00    0.3141593E+00    0.6283185E+00    0.9424778E+00    0.1256637E+01    0.1570796E+01
  0.1884956E+01    0.2199115E+01    0.2513274E+01    0.2827433E+01    0.3141593E+01    0.3455752E+01    0.3769911E+01    0.4084071E+01    0.4398230E+01    0.4712389E+01
  0.5026548E+01    0.5340708E+01    0.5654867E+01    0.5969026E+01    0.6283185E+01    0.0000000E+00    0.3141593E+00    0.6283185E+00    0.9424778E+00    0.1256637E+01
  0.1570796E+01    0.1884956E+01    0.2199115E+01    0.2513274E+01    0.2827433E+01    0.3141593E+01    0.3455752E+01    0.3769911E+01    0.4084071E+01    0.4398230E+01
  0.4712389E+01    0.5026548E+01    0.5340708E+01    0.5654867E+01    0.5969026E+01    0.6283185E+01    0.0000000E+00    0.3141593E+00    0.6283185E+00    0.9424778E+00
  0.1256637E+01    0.1570796E+01    0.1884956E+01    0.2199115E+01    0.2513274E+01    0.2827433E+01    0.3141593E+01    0.3455752E+01    0.3769911E+01    0.4084071E+01
  0.4398230E+01    0.4712389E+01    0.5026548E+01    0.5340708E+01    0.5654867E+01    0.5969026E+01    0.6283185E+01    0.0000000E+00    0.3141593E+00    0.6283185E+00
  0.9424778E+00    0.1256637E+01    0.1570796E+01    0.1884956E+01    0.2199115E+01    0.2513274E+01    0.2827433E+01    0.3141593E+01    0.3455752E+01    0.3769911E+01
  0.4084071E+01    0.4398230E+01    0.4712389E+01    0.5026548E+01    0.5340708E+01    0.5654867E+01    0.5969026E+01    0.6283185E+01    0.0000000E+00    0.3141593E+00
  0.6283185E+00    0.9424778E+00    0.1256637E+01    0.1570796E+01    0.1884956E+01    0.2199115E+01    0.2513274E+01    0.2827433E+01    0.3141593E+01    0.3455752E+01
  0.3769911E+01    0.4084071E+01    0.4398230E+01    0.4712389E+01    0.5026548E+01    0.5340708E+01    0.5654867E+01    0.5969026E+01    0.6283185E+01    0.0000000E+00
  0.3141593E+00    0.6283185E+00    0.9424778E+00    0.1256637E+01    0.1570796E+01    0.1884956E+01    0.2199115E+01    0.2513274E+01    0.2827433E+01    0.3141593E+01
  0.3455752E+01    0.3769911E+01    0.4084071E+01    0.4398230E+01    0.4712389E+01    0.5026548E+01    0.5340708E+01    0.5654867E+01    0.5969026E+01    0.6283185E+01
  0.0000000E+00    0.3141593E+00    0.6283185E+00    0.9424778E+00    0.1256637E+01    0.1570796E+01    0.1884956E+01    0.2199115E+01    0.2513274E+01    0.2827433E+01
  0.3141593E+01    0.3455752E+01    0.3769911E+01    0.4084071E+01    0.4398230E+01    0.4712389E+01    0.5026548E+01    0.5340708E+01    0.5654867E+01    0.5969026E+01
  0.6283185E+01    0.0000000E+00    0.3141593E+00    0.6283185E+00    0.9424778E+00    0.1256637E+01    0.1570796E+01    0.1884956E+01    0.2199115E+01    0.2513274E+01
  0.2827433E+01    0.3141593E+01    0.3455752E+01    0.3769911E+01    0.4084071E+01    0.4398230E+01    0.4712389E+01    0.5026548E+01    0.5340708E+01    0.5654867E+01
  0.5969026E+01    0.6283185E+01    0.0000000E+00    0.3141593E+00    0.6283185E+00    0.9424778E+00    0.1256637E+01    0.1570796E+01    0.1884956E+01    0.2199115E+01
  0.2513274E+01    0.2827433E+01    0.3141593E+01    0.3455752E+01    0.3769911E+01    0.4084071E+01    0.4398230E+01    0.4712389E+01    0.5026548E+01    0.5340708E+01
  0.5654867E+01    0.5969026E+01    0.6283185E+01    0.0000000E+00    0.3141593E+00    0.6283185E+00    0.9424778E+00    0.1256637E+01    0.1570796E+01    0.1884956E+01
  0.2199115E+01    0.2513274E+01    0.2827433E+01    0.3141593E+01    0.3455752E+01    0.3769911E+01    0.4084071E+01    0.4398230E+01    0.4712389E+01    0.5026548E+01
  0.5340708E+01    0.5654867E+01    0.5969026E+01    0.6283185E+01    0.0000000E+00    0.3141593E+00    0.6283185E+00    0.9424778E+00    0.1256637E+01    0.1570796E+01
  0.1884956E+01    0.2199115E+01    0.2513274E+01    0.2827433E+01    0.3141593E+01    0.3455752E+01    0.3769911E+01    0.4084071E+01    0.4398230E+01    0.4712389E+01
  0.5026548E+01    0.5340708E+01    0.5654867E+01    0.5969026E+01    0.6283185E+01    0.0000000E+00    0.3141593E+00    0.6283185E+00    0.9424778E+00    0.1256637E+01
  0.1570796E+01    0.1884956E+01    0.2199115E+01    0.2513274E+01    0.2827433E+01    0.3141593E+01    0.3455752E+01    0.3769911E+01    0.4084071E+01    0.4398230E+01
  0.4712389E+01    0.5026548E+01    0.5340708E+01    0.5654867E+01    0.5969026E+01    0.6283185E+01    0.0000000E+00    0.3141593E+00    0.6283185E+00    0.9424778E+00
  0.1256637E+01    0.1570796E+01    0.1884956E+01    0.2199115E+01    0.2513274E+01    0.2827433E+01    0.3141593E+01    0.3455752E+01    0.3769911E+01    0.4084071E+01
  0.4398230E+01    0.4712389E+01    0.5026548E+01    0.5340708E+01    0.5654867E+01    0.5969026E+01    0.6283185E+01    0.0000000E+00    0.3141593E+00    0.6283185E+00
  0.9424778E+00    0.1256637E+01    0.1570796E+01    0.1884956E+01    0.2199115E+01    0.2513274E+01    0.2827433E+01    0.3141593E+01    0.3455752E+01    0.3769911E+01
  0.4084071E+01    0.4398230E+01    0.4712389E+01    0.5026548E+01    0.5340708E+01    0.5654867E+01    0.5969026E+01    0.6283185E+01    0.0000000E+00    0.3141593E+00
  0.6283185E+00    0.9424778E+00    0.1256637E+01    0.1570796E+01    0.1884956E+01    0.2199115E+01    0.2513274E+01    0.2827433E+01    0.3141593E+01    0.3455752E+01
  0.3769911E+01    0.4084071E+01    0.4398230E+01    0.4712389E+01    0.5026548E+01    0.5340708E+01    0.5654867E+01    0.5969026E+01    0.6283185E+01    0.0000000E+00
  0.3141593E+00    0.6283185E+00    0.9424778E+00    0.1256637E+01    0.1570796E+01    0.1884956E+01    0.2199115E+01    0.2513274E+01    0.2827433E+01    0.3141593E+01
  0.3455752E+01    0.3769911E+01    0.4084071E+01    0.4398230E+01    0.4712389E+01    0.5026548E+01    0.5340708E+01    0.5654867E+01    0.5969026E+01    0.6283185E+01
  0.0000000E+00    0.3141593E+00    0.6283185E+00    0.9424778E+00    0.1256637E+01    0.1570796E+01    0.1884956E+01    0.2199115E+01    0.2513274E+01    0.2827433E+01
  0.3141593E+01    0.3455752E+01    0.3769911E+01    0.4084071E+01    0.4398230E+01    0.4712389E+01    0.5026548E+01    0.5340708E+01    0.5654867E+01    0.5969026E+01
  0.6283185E+01    0.0000000E+00    0.0000000E+00    0.0000000E+00    0.0000000E+00    0.0000000E+00    0.0000000E+00    0.0000000E+00    0.0000000E+00    0.0000000E+00
  0.0000000E+00    0.0000000E+00    0.0000000E+00    0.0000000E+00    0.0000000E+00    0.0000000E+00    0.0000000E+00    0.0000000E+00    0.0000000E+00    0.0000000E+00
  0.0000000E+00    0.0000000E+00    0.3141593E+00    0.3141593E+00    0.3141593E+00    0.3141593E+00    0.3141593E+00    0.3141593E+00    0.3141593E+00    0.3141593E+00
  0.3141593E+00    0.3141593E+00    0.3141593E+00    0.3141593E+00    0.3141593E+00    0.3141593E+00    0.3141593E+00    0.3141593E+00    0.3141593E+00    0.3141593E+00
  0.3141593E+00    0.3141593E+00    0.3141593E+00    0.6283185E+00    0.6283185E+00    0.6283185E+00    0.6283185E+00    0.6283185E+00    0.6283185E+00    0.6283185E+00
  0.6283185E+00    0.6283185E+00    0.6283185E+00    0.6283185E+00    0.6283185E+00    0.6283185E+00    0.6283185E+00    0.6283185E+00    0.6283185E+00    0.6283185E+00
  0.6283185E+00    0.6283185E+00    0.6283185E+00    0.6283185E+00    0.9424778E+00    0.9424778E+00    0.9424778E+00    0.9424778E+00    0.9424778E+00    0.9424778E+00
  0.9424778E+00    0.9424778E+00    0.9424778E+00    0.9424778E+00    0.9424778E+00    0.9424778E+00    0.9424778E+00    0.9424778E+00    0.9424778E+00    0.9424778E+00
  0.9424778E+00    0.9424778E+00    0.9424778E+00    0.9424778E+00    0.9424778E+00    0.1256637E+01    0.1256637E+01    0.1256637E+01    0.1256637E+01    0.1256637E+01
  0.1256637E+01    0.1256637E+01    0.1256637E+01    0.1256637E+01    0.1256637E+01    0.1256637E+01    0.1256637E+01    0.1256637E+01    0.1256637E+01    0.1256637E+01
  0.1256637E+01    0.1256637E+01    0.1256637E+01    0.1256637E+01    0.1256637E+01    0.1256637E+01    0.1570796E+01    0.1570796E+01    0.1570796E+01    0.1570796E+01
  0.1570796E+01    0.1570796E+01    0.1570796E+01    0.1570796E+01    0.1570796E+01    0.1570796E+01    0.1570796E+01    0.1570796E+01    0.1570796E+01    0.1570796E+01
  0.1570796E+01    0.1570796E+01    0.1570796E+01    0.1570796E+01    0.1570796E+01    0.1570796E+01    0.1570796E+01    0.1884956E+01    0.1884956E+01    0.1884956E+01
  0.1884956E+01    0.1884956E+01    0.1884956E+01    0.1884956E+01    0.1884956E+01    0.1884956E+01    0.1884956E+01    0.1884956E+01    0.1884956E+01    0.1884956E+01
  0.1884956E+01    0.1884956E+01    0.1884956E+01    0.1884956E+01    0.1884956E+01    0.1884956E+01    0.1884956E+01    0.1884956E+01    0.2199115E+01    0.2199115E+01
  0.2199115E+01    0.2199115E+01    0.2199115E+01    0.2199115E+01    0.2199115E+01    0.2199115E+01    0.2199115E+01    0.2199115E+01    0.2199115E+01    0.2199115E+01
  0.2199115E+01    0.2199115E+01    0.2199115E+01    0.2199115E+01    0.2199115E+01    0.2199115E+01    0.2199115E+01    0.2199115E+01    0.2199115E+01    0.2513274E+01
  0.2513274E+01    0.2513274E+01    0.2513274E+01    0.2513274E+01    0.2513274E+01    0.2513274E+01    0.2513274E+01    0.2513274E+01    0.2513274E+01    0.2513274E+01
  0.2513274E+01    0.2513274E+01    0.2513274E+01    0.2513274E+01    0.2513274E+01    0.2513274E+01    0.2513274E+01    0.2513274E+01    0.2513274E+01    0.2513274E+01
  0.2827433E+01    0.2827433E+01    0.2827433E+01    0.2827433E+01    0.2827433E+01    0.2827433E+01    0.2827433E+01    0.2827433E+01    0.2827433E+01    0.2827433E+01
  0.2827433E+01    0.2827433E+01    0.2827433E+01    0.2827433E+01    0.2827433E+01    0.2827433E+01    0.2827433E+01    0.2827433E+01    0.2827433E+01    0.2827433E+01
  0.2827433E+01    0.3141593E+01    0.3141593E+01    0.3141593E+01    0.3141593E+01    0.3141593E+01    0.3141593E+01    0.3141593E+01    0.3141593E+01    0.3141593E+01
  0.3141593E+01    0.3141593E+01    0.3141593E+01    0.3141593E+01    0.3141593E+01    0.3141593E+01    0.3141593E+01    0.3141593E+01    0.3141593E+01    0.3141593E+01
  0.3141593E+01    0.3141593E+01    0.3455752E+01    0.3455752E+01    0.3455752E+01    0.3455752E+01    0.3455752E+01    0.3455752E+01    0.3455752E+01    0.3455752E+01
  0.3455752E+01    0.3455752E+01    0.3455752E+01    0.3455752E+01    0.3455752E+01    0.3455752E+01    0.3455752E+01    0.3455752E+01    0.3455752E+01    0.3455752E+01
  0.3455752E+01    0.3455752E+01    0.3455752E+01    0.3769911E+01    0.3769911E+01    0.3769911E+01    0.3769911E+01    0.3769911E+01    0.3769911E+01    0.3769911E+01
  0.3769911E+01    0.3769911E+01    0.3769911E+01    0.3769911E+01    0.3769911E+01    0.3769911E+01    0.3769911E+01    0.3769911E+01    0.3769911E+01    0.3769911E+01
  0.3769911E+01    0.3769911E+01    0.3769911E+01    0.3769911E+01    0.4084071E+01    0.4084071E+01    0.4084071E+01    0.4084071E+01    0.4084071E+01    0.4084071E+01
  0.4084071E+01    0.4084071E+01    0.4084071E+01    0.4084071E+01    0.4084071E+01    0.4084071E+01    0.4084071E+01    0.4084071E+01    0.4084071E+01    0.4084071E+01
  0.4084071E+01    0.4084071E+01    0.4084071E+01    0.4084071E+01    0.4084071E+01    0.4398230E+01    0.4398230E+01    0.4398230E+01    0.4398230E+01    0.4398230E+01
  0.4398230E+01    0.4398230E+01    0.4398230E+01    0.4398230E+01    0.4398230E+01    0.4398230E+01    0.4398230E+01    0.4398230E+01    0.4398230E+01    0.4398230E+01
  0.4398230E+01    0.4398230E+01    0.4398230E+01    0.4398230E+01    0.4398230E+01    0.4398230E+01    0.4712389E+01    0.4712389E+01    0.4712389E+01    0.4712389E+01
  0.4712389E+01    0.4712389E+01    0.4712389E+01    0.4712389E+01    0.4712389E+01    0.4712389E+01    0.4712389E+01    0.4712389E+01    0.4712389E+01    0.4712389E+01
  0.4712389E+01    0.4712389E+01    0.4712389E+01    0.4712389E+01    0.4712389E+01    0.4712389E+01    0.4712389E+01    0.5026548E+01    0.5026548E+01    0.5026548E+01
  0.5026548E+01    0.5026548E+01    0.5026548E+01    0.5026548E+01    0.5026548E+01    0.5026548E+01    0.5026548E+01    0.5026548E+01    0.5026548E+01    0.5026548E+01
  0.5026548E+01    0.5026548E+01    0.5026548E+01    0.5026548E+01    0.5026548E+01    0.5026548E+01    0.5026548E+01    0.5026548E+01    0.5340708E+01    0.5340708E+01
  0.5340708E+01    0.5340708E+01    0.5340708E+01    0.5340708E+01    0.5340708E+01    0.5340708E+01    0.5340708E+01    0.5340708E+01    0.5340708E+01    0.5340708E+01
  0.5340708E+01    0.5340708E+01    0.5340708E+01    0.5340708E+01    0.5340708E+01    0.5340708E+01    0.5340708E+01    0.5340708E+01    0.5340708E+01    0.5654867E+01
  0.5654867E+01    0.5654867E+01    0.5654867E+01    0.5654867E+01    0.5654867E+01    0.5654867E+01    0.5654867E+01    0.5654867E+01    0.5654867E+01    0.5654867E+01
  0.5654867E+01    0.5654867E+01    0.5654867E+01    0.5654867E+01    0.5654867E+01    0.5654867E+01    0.5654867E+01    0.5654867E+01    0.5654867E+01    0.5654867E+01
  0.5969026E+01    0.5969026E+01    0.5969026E+01    0.5969026E+01    0.5969026E+01    0.5969026E+01    0.5969026E+01    0.5969026E+01    0.5969026E+01    0.5969026E+01
  0.5969026E+01    0.5969026E+01    0.5969026E+01    0.5969026E+01    0.5969026E+01    0.5969026E+01    0.5969026E+01    0.5969026E+01    0.5969026E+01    0.5969026E+01
  0.5969026E+01    0.6283185E+01    0.6283185E+01    0.6283185E+01    0.6283185E+01    0.6283185E+01    0.6283185E+01    0.6283185E+01    0.6283185E+01    0.6283185E+01
  0.6283185E+01    0.6283185E+01    0.6283185E+01    0.6283185E+01    0.6283185E+01    0.6283185E+01    0.6283185E+01    0.6283185E+01    0.6283185E+01    0.6283185E+01
  0.6283185E+01    0.6283185E+01   -0.7788898E-02   -0.7026999E-02   -0.5577465E-02   -0.3582209E-02   -0.1236307E-02    0.1230227E-02    0.3575399E-02    0.5569533E-02
  0.7017567E-02    0.7787271E-02    0.7795267E-02    0.7031189E-02    0.5579271E-02    0.3583143E-02    0.1236642E-02   -0.1230824E-02   -0.3576523E-02   -0.5572366E-02
 -0.7023158E-02   -0.7784954E-02   -0.2260014E-01   -0.2038813E-01   -0.1618050E-01   -0.1038916E-01   -0.3580978E-02    0.3577386E-02    0.1038496E-01    0.1617545E-01
  0.2038288E-01    0.2259933E-01    0.2260385E-01    0.2039135E-01    0.1618232E-01    0.1039017E-01    0.3581372E-02   -0.3577697E-02   -0.1038580E-01   -0.1617731E-01
 -0.2038540E-01   -0.2259733E-01   -0.3519953E-01   -0.3175372E-01   -0.2519982E-01   -0.1617934E-01   -0.5575234E-02    0.5574374E-02    0.1617801E-01    0.2519793E-01
  0.3175170E-01    0.3519899E-01    0.3520089E-01    0.3175539E-01    0.2520099E-01    0.1618009E-01    0.5575596E-02   -0.5574431E-02   -0.1617832E-01   -0.2519850E-01
 -0.3175222E-01   -0.3519749E-01   -0.4435302E-01   -0.4001103E-01   -0.3175258E-01   -0.2038602E-01   -0.7023987E-02    0.7025424E-02    0.2038703E-01    0.3175302E-01
  0.4001097E-01    0.4435296E-01    0.4435345E-01    0.4001164E-01    0.3175302E-01    0.2038633E-01    0.7024136E-02   -0.7025426E-02   -0.2038696E-01   -0.3175288E-01
 -0.4001057E-01   -0.4435131E-01   -0.4916481E-01   -0.4435194E-01   -0.3519741E-01   -0.2259745E-01   -0.7785530E-02    0.7788405E-02    0.2259990E-01    0.3519912E-01
  0.4435286E-01    0.4916522E-01    0.4916494E-01    0.4435182E-01    0.3519715E-01    0.2259718E-01    0.7785292E-02   -0.7788567E-02   -0.2259987E-01   -0.3519893E-01
 -0.4435248E-01   -0.4916442E-01   -0.4916532E-01   -0.4435196E-01   -0.3519723E-01   -0.2259722E-01   -0.7785273E-02    0.7788644E-02    0.2260006E-01    0.3519921E-01
  0.4435273E-01    0.4916469E-01    0.4916411E-01    0.4435085E-01    0.3519614E-01    0.2259630E-01    0.7784559E-02   -0.7789241E-02   -0.2260040E-01   -0.3519929E-01
 -0.4435285E-01   -0.4916482E-01   -0.4435298E-01   -0.4001059E-01   -0.3175191E-01   -0.2038523E-01   -0.7023181E-02    0.7026166E-02    0.2038768E-01    0.3175344E-01
  0.4001076E-01    0.4435154E-01    0.4435087E-01    0.4000863E-01    0.3175010E-01    0.2038371E-01    0.7021855E-02   -0.7027303E-02   -0.2038846E-01   -0.3175401E-01
 -0.4001119E-01   -0.4435142E-01   -0.3519850E-01   -0.3175267E-01   -0.2519860E-01   -0.1617796E-01   -0.5573833E-02    0.5575747E-02    0.1617943E-01    0.2519919E-01
  0.3175214E-01    0.3519690E-01    0.3519621E-01    0.3175019E-01    0.2519623E-01    0.1617580E-01    0.5571931E-02   -0.5577373E-02   -0.1618081E-01   -0.2520039E-01
 -0.3175319E-01   -0.3519781E-01   -0.2260018E-01   -0.2038717E-01   -0.1617893E-01   -0.1038726E-01   -0.3578985E-02    0.3579406E-02    0.1038723E-01    0.1617818E-01
  0.2038531E-01    0.2259681E-01    0.2259635E-01    0.2038386E-01    0.1617591E-01    0.1038460E-01    0.3576667E-02   -0.3581574E-02   -0.1038918E-01   -0.1617992E-01
 -0.2038715E-01   -0.2259888E-01   -0.7788786E-02   -0.7025825E-02   -0.5575584E-02   -0.3579832E-02   -0.1233895E-02    0.1232542E-02    0.3578215E-02    0.5573474E-02
  0.7022889E-02    0.7784803E-02    0.7784587E-02    0.7022113E-02    0.5572269E-02    0.3576922E-02    0.1231182E-02   -0.1235091E-02   -0.3580466E-02   -0.5575591E-02
 -0.7024858E-02   -0.7786094E-02    0.7785933E-02    0.7023500E-02    0.5573564E-02    0.3577922E-02    0.1231837E-02   -0.1235028E-02   -0.3581160E-02   -0.5576969E-02
 -0.7027005E-02   -0.7789292E-02   -0.7789315E-02   -0.7026950E-02   -0.5576834E-02   -0.3581016E-02   -0.1234719E-02    0.1232351E-02    0.3578600E-02    0.5574488E-02
  0.7024695E-02    0.7787162E-02    0.2259667E-01    0.2038467E-01    0.1617686E-01    0.1038527E-01    0.3576898E-02   -0.3581849E-02   -0.1039019E-01   -0.1618155E-01
 -0.2038913E-01   -0.2260107E-01   -0.2260070E-01   -0.2038819E-01   -0.1618015E-01   -0.1038829E-01   -0.3579703E-02    0.3579044E-02    0.1038745E-01    0.1617893E-01
  0.2038638E-01    0.2259802E-01    0.3519646E-01    0.3175066E-01    0.2519659E-01    0.1617592E-01    0.5571638E-02   -0.5578288E-02   -0.1618225E-01   -0.2520230E-01
 -0.3175563E-01   -0.3520051E-01   -0.3519982E-01   -0.3175380E-01   -0.2519951E-01   -0.1617864E-01   -0.5574376E-02    0.5575553E-02    0.1617966E-01    0.2519975E-01
  0.3175323E-01    0.3519879E-01    0.4435151E-01    0.4000875E-01    0.3174979E-01    0.2038295E-01    0.7020735E-02   -0.7028845E-02   -0.2039049E-01   -0.3175637E-01
 -0.4001375E-01   -0.4435436E-01   -0.4435348E-01   -0.4001103E-01   -0.3175214E-01   -0.2038539E-01   -0.7023196E-02    0.7026399E-02    0.2038799E-01    0.3175386E-01
  0.4001144E-01    0.4435217E-01    0.4916300E-01    0.4434964E-01    0.3519471E-01    0.2259446E-01    0.7782377E-02   -0.7791643E-02   -0.2260311E-01   -0.3520204E-01
 -0.4435519E-01   -0.4916672E-01   -0.4916547E-01   -0.4435168E-01   -0.3519672E-01   -0.2259646E-01   -0.7784409E-02    0.7789383E-02    0.2260076E-01    0.3519978E-01
  0.4435288E-01    0.4916409E-01    0.4916329E-01    0.4434953E-01    0.3519439E-01    0.2259406E-01    0.7781957E-02   -0.7792067E-02   -0.2260338E-01   -0.3520211E-01
 -0.4435515E-01   -0.4916634E-01   -0.4916479E-01   -0.4435094E-01   -0.3519578E-01   -0.2259549E-01   -0.7783678E-02    0.7790107E-02    0.2260144E-01    0.3520024E-01
  0.4435358E-01    0.4916580E-01    0.4435141E-01    0.4000814E-01    0.3174882E-01    0.2038177E-01    0.7019509E-02   -0.7029978E-02   -0.2039134E-01   -0.3175672E-01
 -0.4001345E-01   -0.4435326E-01   -0.4435163E-01   -0.4000868E-01   -0.3174950E-01   -0.2038275E-01   -0.7020802E-02    0.7028478E-02    0.2038964E-01    0.3175498E-01
  0.4001210E-01    0.4435227E-01    0.3519546E-01    0.3174938E-01    0.2519501E-01    0.1617407E-01    0.5569684E-02   -0.5580025E-02   -0.1618364E-01   -0.2520304E-01
 -0.3175520E-01   -0.3519883E-01   -0.3519694E-01   -0.3174987E-01   -0.2519532E-01   -0.1617459E-01   -0.5570472E-02    0.5578798E-02    0.1618204E-01    0.2520158E-01
  0.3175393E-01    0.3519737E-01    0.2259629E-01    0.2038334E-01    0.1617496E-01    0.1038301E-01    0.3574482E-02   -0.3584122E-02   -0.1039205E-01   -0.1618274E-01
 -0.2038906E-01   -0.2259893E-01   -0.2259659E-01   -0.2038295E-01   -0.1617455E-01   -0.1038301E-01   -0.3574889E-02    0.3583169E-02    0.1039070E-01    0.1618160E-01
  0.2038858E-01    0.2260037E-01    0.7786013E-02    0.7022227E-02    0.5571560E-02    0.3575526E-02    0.1229213E-02   -0.1237522E-02   -0.3583525E-02   -0.5579172E-02
 -0.7028045E-02   -0.7786904E-02   -0.7783632E-02   -0.7020026E-02   -0.5570135E-02   -0.3575210E-02   -0.1229174E-02    0.1236962E-02    0.3581955E-02    0.5577601E-02
  0.7026996E-02    0.7788037E-02    0.7781185E-02    0.2259165E-01    0.3518911E-01    0.4434048E-01    0.4914994E-01    0.4914555E-01    0.4432855E-01    0.3517187E-01
  0.2257400E-01    0.7781925E-02   -0.7810729E-02   -0.2262620E-01   -0.3522269E-01   -0.4437160E-01   -0.4918142E-01   -0.4917701E-01   -0.4436020E-01   -0.3520581E-01
 -0.2260452E-01   -0.7791055E-02    0.7019243E-02    0.2037974E-01    0.3174387E-01    0.3999912E-01    0.4433726E-01    0.4433330E-01    0.3998807E-01    0.3172781E-01
  0.2036255E-01    0.7007258E-02   -0.7048492E-02   -0.2041201E-01   -0.3177593E-01   -0.4002995E-01   -0.4436793E-01   -0.4436403E-01   -0.4001914E-01   -0.3175962E-01
 -0.2039204E-01   -0.7029518E-02    0.5569210E-02    0.1617191E-01    0.2519013E-01    0.3174097E-01    0.3518308E-01    0.3517944E-01    0.3173064E-01    0.2517482E-01
  0.1615424E-01    0.5551790E-02   -0.5599396E-02   -0.1620327E-01   -0.2522132E-01   -0.3177145E-01   -0.3521327E-01   -0.3520974E-01   -0.3176131E-01   -0.2520579E-01
 -0.1618431E-01   -0.5579903E-02    0.3573157E-02    0.1038014E-01    0.1616952E-01    0.2037451E-01    0.2258343E-01    0.2258002E-01    0.2036478E-01    0.1615483E-01
  0.1036240E-01    0.3554329E-02   -0.3604186E-02   -0.1041131E-01   -0.1620029E-01   -0.2040473E-01   -0.2261342E-01   -0.2261015E-01   -0.2039529E-01   -0.1618573E-01
 -0.1039322E-01   -0.3584715E-02    0.1226923E-02    0.3571565E-02    0.5565142E-02    0.7012414E-02    0.7771620E-02    0.7768457E-02    0.7003304E-02    0.5551160E-02
  0.3554314E-02    0.1208119E-02   -0.1258094E-02   -0.3602562E-02   -0.5595704E-02   -0.7042580E-02   -0.7801611E-02   -0.7798588E-02   -0.7033885E-02   -0.5582231E-02
 -0.3585601E-02   -0.1239473E-02   -0.1240285E-02   -0.3587559E-02   -0.5585084E-02   -0.7037433E-02   -0.7802483E-02   -0.7805387E-02   -0.7045858E-02   -0.5598101E-02
 -0.3603793E-02   -0.1258202E-02    0.1209086E-02    0.3556573E-02    0.5554428E-02    0.7007115E-02    0.7772303E-02    0.7774983E-02    0.7015022E-02    0.5566841E-02
  0.3572224E-02    0.1226660E-02   -0.3587134E-02   -0.1039646E-01   -0.1618964E-01   -0.2039960E-01   -0.2261428E-01   -0.2261695E-01   -0.2040727E-01   -0.1620150E-01
 -0.1041134E-01   -0.3603445E-02    0.3555730E-02    0.1036532E-01    0.1615886E-01    0.2036911E-01    0.2258380E-01    0.2258626E-01    0.2037625E-01    0.1617002E-01
  0.1037956E-01    0.3571776E-02   -0.5583306E-02   -0.1618842E-01   -0.2521038E-01   -0.3176609E-01   -0.3521390E-01   -0.3521629E-01   -0.3177303E-01   -0.2522120E-01
 -0.1620199E-01   -0.5598257E-02    0.5551942E-02    0.1615726E-01    0.2517950E-01    0.3173534E-01    0.3518316E-01    0.3518542E-01    0.3174178E-01    0.2518951E-01
  0.1617007E-01    0.5566234E-02   -0.7033931E-02   -0.2039675E-01   -0.3176448E-01   -0.4002442E-01   -0.4436804E-01   -0.4437021E-01   -0.4003073E-01   -0.3177428E-01
 -0.2040905E-01   -0.7047573E-02    0.7002342E-02    0.2036533E-01    0.3173321E-01    0.3999333E-01    0.4433701E-01    0.4433897E-01    0.3999918E-01    0.3174247E-01
  0.2037701E-01    0.7015586E-02   -0.7797165E-02   -0.2260949E-01   -0.3521028E-01   -0.4436605E-01   -0.4918058E-01   -0.4918261E-01   -0.4437186E-01   -0.3521924E-01
 -0.2262072E-01   -0.7809357E-02    0.7764948E-02    0.2257757E-01    0.3517869E-01    0.4433470E-01    0.4914921E-01    0.4915112E-01    0.4434020E-01    0.3518727E-01
  0.2258851E-01    0.7777244E-02   -0.7797410E-02   -0.2260969E-01   -0.3521035E-01   -0.4436600E-01   -0.4918044E-01   -0.4918234E-01   -0.4437153E-01   -0.3521898E-01
 -0.2262043E-01   -0.7809133E-02    0.7764976E-02    0.2257756E-01    0.3517857E-01    0.4433436E-01    0.4914889E-01    0.4915078E-01    0.4433972E-01    0.3518684E-01
  0.2258807E-01    0.7776521E-02   -0.7035196E-02   -0.2039758E-01   -0.3176485E-01   -0.4002438E-01   -0.4436767E-01   -0.4436958E-01   -0.4002997E-01   -0.3177349E-01
 -0.2040834E-01   -0.7047111E-02    0.7002506E-02    0.2036516E-01    0.3173267E-01    0.3999250E-01    0.4433596E-01    0.4433777E-01    0.3999796E-01    0.3174129E-01
  0.2037590E-01    0.7014514E-02   -0.5585289E-02   -0.1618967E-01   -0.2521093E-01   -0.3176603E-01   -0.3521331E-01   -0.3521538E-01   -0.3177192E-01   -0.2522000E-01
 -0.1620105E-01   -0.5597674E-02    0.5552142E-02    0.1615684E-01    0.2517857E-01    0.3173405E-01    0.3518142E-01    0.3518348E-01    0.3173991E-01    0.2518769E-01
  0.1616842E-01    0.5564942E-02   -0.3588768E-02   -0.1039751E-01   -0.1619001E-01   -0.2039930E-01   -0.2261346E-01   -0.2261570E-01   -0.2040579E-01   -0.1620016E-01
 -0.1041024E-01   -0.3602785E-02    0.3555701E-02    0.1036474E-01    0.1615768E-01    0.2036725E-01    0.2258164E-01    0.2258394E-01    0.2037376E-01    0.1616772E-01
  0.1037747E-01    0.3569615E-02   -0.1241831E-02   -0.3588459E-02   -0.5585305E-02   -0.7037015E-02   -0.7801540E-02   -0.7804060E-02   -0.7044431E-02   -0.5596855E-02
 -0.3602958E-02   -0.1258029E-02    0.1208659E-02    0.3555609E-02    0.5552816E-02    0.7004989E-02    0.7769830E-02    0.7772246E-02    0.7012303E-02    0.5564386E-02
  0.3570091E-02    0.1224897E-02    0.1225712E-02    0.3571007E-02    0.5565171E-02    0.7012952E-02    0.7772612E-02    0.7769669E-02    0.7004465E-02    0.5551966E-02
  0.3554286E-02    0.1207263E-02   -0.1259283E-02   -0.3604166E-02   -0.5597687E-02   -0.7044849E-02   -0.7804303E-02   -0.7801431E-02   -0.7036521E-02   -0.5584627E-02
 -0.3587565E-02   -0.1240720E-02    0.3573396E-02    0.1038058E-01    0.1617019E-01    0.2037548E-01    0.2258460E-01    0.2258125E-01    0.2036576E-01    0.1615489E-01
  0.1036107E-01    0.3551697E-02   -0.3606805E-02   -0.1041358E-01   -0.1620243E-01   -0.2040714E-01   -0.2261597E-01   -0.2261262E-01   -0.2039773E-01   -0.1618783E-01
 -0.1039469E-01   -0.3585813E-02    0.5570241E-02    0.1617305E-01    0.2519135E-01    0.3174229E-01    0.3518438E-01    0.3518063E-01    0.3173129E-01    0.2517400E-01
  0.1615085E-01    0.5545288E-02   -0.5604128E-02   -0.1620624E-01   -0.2522355E-01   -0.3177368E-01   -0.3521539E-01   -0.3521174E-01   -0.3176329E-01   -0.2520711E-01
 -0.1618473E-01   -0.5579658E-02    0.7020661E-02    0.2038140E-01    0.3174553E-01    0.4000077E-01    0.4433867E-01    0.4433448E-01    0.3998881E-01    0.3172659E-01
  0.2035665E-01    0.6992832E-02   -0.7055772E-02   -0.2041533E-01   -0.3177757E-01   -0.4003179E-01   -0.4436957E-01   -0.4436513E-01   -0.4002054E-01   -0.3176018E-01
 -0.2039126E-01   -0.7028322E-02    0.7784507E-02    0.2259459E-01    0.3519157E-01    0.4434294E-01    0.4915159E-01    0.4914704E-01    0.4433042E-01    0.3517148E-01
  0.2256697E-01    0.7751460E-02   -0.7819937E-02   -0.2262857E-01   -0.3522246E-01   -0.4437336E-01   -0.4918236E-01   -0.4917634E-01   -0.4436171E-01   -0.3520585E-01
 -0.2260187E-01   -0.7790272E-02    0.1144535E-02    0.1335303E-02    0.1487046E-02    0.1672234E-02    0.1778955E-02    0.1650669E-02    0.1490744E-02    0.1207535E-02
  0.8496975E-03    0.5313659E-03    0.6116318E-03    0.8018233E-03    0.1109840E-02    0.1276493E-02    0.1393902E-02    0.1517697E-02    0.1525270E-02    0.1231354E-02
  0.1203756E-02    0.1252300E-02    0.1314594E-02    0.1482920E-02    0.1637348E-02    0.1834719E-02    0.1897478E-02    0.1725418E-02    0.1571048E-02    0.1260725E-02
  0.9505583E-03    0.8325241E-03    0.7805478E-03    0.9699764E-03    0.1283870E-02    0.1417494E-02    0.1544959E-02    0.1639487E-02    0.1590257E-02    0.1316069E-02
  0.1287052E-02    0.1347314E-02    0.1452539E-02    0.1622397E-02    0.1812607E-02    0.1998096E-02    0.2018786E-02    0.1852741E-02    0.1657877E-02    0.1331233E-02
  0.1105891E-02    0.1040959E-02    0.1014334E-02    0.1214875E-02    0.1501665E-02    0.1703656E-02    0.1786056E-02    0.1771878E-02    0.1711537E-02    0.1423431E-02
  0.1357685E-02    0.1532776E-02    0.1685344E-02    0.1869909E-02    0.2038417E-02    0.2181402E-02    0.2152544E-02    0.1947437E-02    0.1733877E-02    0.1448376E-02
  0.1259232E-02    0.1260822E-02    0.1271567E-02    0.1448209E-02    0.1757292E-02    0.1923077E-02    0.1878560E-02    0.1870941E-02    0.1775909E-02    0.1475637E-02