 TITLE = "NAVIER-STOKES OUTPUT"
 VARIABLES = "X", "Y", "U", "V", "P", "Pex", "Vor"
 ZONE I =   21, J =   21, DATAPACKING = BLOCK, VARLOCATION=(3=CELLCENTERED, 4=CELLCENTERED,5=CELLCENTERED,6=CELLCENTERED, 7=CELLCENTERED)
  0.0000000E+00    0.3141593E+00    0.6283185E+00    0.9424778E+00    0.1256637E+01    0.1570796E+01    0.1884956E+01    0.2199115E+01    0.2513274E+01    0.2827433E+01
  0.3141593E+01    0.3455752E+01    0.3769911E+01    0.4084071E+01    0.4398230E+01    0.4712389E+01    0.5026548E+01    0.5340708E+01    0.5654867E+01    0.5969026E+01
  0.6283185E+01    0.0000000E+00    0.3141593E+00    0.6283185E+00    0.9424778E+00    0.1256637E+01    0.1570796E+01    0.1884956E+01    0.2199115E+01    0.2513274E+01
  0.2827433E+01    0.3141593E+01    0.3455752E+01    0.3769911E+01    0.4084071E+01    0.4398230E+01    0.4712389E+01    0.5026548E+01    0.5340708E+01    0.5654867E+01
  0.5969026E+01    0.6283185E+01    0.0000000E+00    0.3141593E+00    0.6283185E+00    0.9424778E+00    0.1256637E+01    0.1570796E+01    0.1884956E+01    0.2199115E+01
  0.2513274E+01    0.2827433E+01    0.3141593E+01    0.3455752E+01    0.3769911E+01    0.4084071E+01    0.4398230E+01    0.4712389E+01    0.5026548E+01    0.5340708E+01
  0.5654867E+01    0.5969026E+01    0.6283185E+01    0.0000000E+00    0.3141593E+00    0.6283185E+00    0.9424778E+00    0.1256637E+01    0.1570796E+01    0.1884956E+01
  0.2199115E+01    0.2513274E+01    0.2827433E+01    0.3141593E+01    0.3455752E+01    0.3769911E+01    0.4084071E+01    0.4398230E+01    0.4712389E+01    0.5026548E+01
  0.5340708E+01    0.5654867E+01    0.5969026E+01    0.6283185E+01    0.0000000E+00    0.3141593E+00    0.6283185E+00    0.9424778E+00    0.1256637E+01    0.1570796E+01
  0.1884956E+01    0.2199115E+01    0.2513274E+01    0.2827433E+01    0.3141593E+01    0.3455752E+01    0.3769911E+01    0.4084071E+01    0.4398230E+01    0.4712389E+01
  0.5026548E+01    0.5340708E+01    0.5654867E+01    0.5969026E+01    0.6283185E+01    0.0000000E+00    0.3141593E+00    0.6283185E+00    0.9424778E+00    0.1256637E+01
  0.1570796E+01    0.1884956E+01    0.2199115E+01    0.2513274E+01    0.2827433E+01    0.3141593E+01    0.3455752E+01    0.3769911E+01    0.4084071E+01    0.4398230E+01
  0.4712389E+01    0.5026548E+01    0.5340708E+01    0.5654867E+01    0.5969026E+01    0.6283185E+01    0.0000000E+00    0.3141593E+00    0.6283185E+00    0.9424778E+00
  0.1256637E+01    0.1570796E+01    0.1884956E+01    0.2199115E+01    0.2513274E+01    0.2827433E+01    0.3141593E+01    0.3455752E+01    0.3769911E+01    0.4084071E+01
  0.4398230E+01    0.4712389E+01    0.5026548E+01    0.5340708E+01    0.5654867E+01    0.5969026E+01    0.6283185E+01    0.0000000E+00    0.3141593E+00    0.6283185E+00
  0.9424778E+00    0.1256637E+01    0.1570796E+01    0.1884956E+01    0.2199115E+01    0.2513274E+01    0.2827433E+01    0.3141593E+01    0.3455752E+01    0.3769911E+01
  0.4084071E+01    0.4398230E+01    0.4712389E+01    0.5026548E+01    0.5340708E+01    0.5654867E+01    0.5969026E+01    0.6283185E+01    0.0000000E+00    0.3141593E+00
  0.6283185E+00    0.9424778E+00    0.1256637E+01    0.1570796E+01    0.1884956E+01    0.2199115E+01    0.2513274E+01    0.2827433E+01    0.3141593E+01    0.3455752E+01
  0.3769911E+01    0.4084071E+01    0.4398230E+01    0.4712389E+01    0.5026548E+01    0.5340708E+01    0.5654867E+01    0.5969026E+01    0.6283185E+01    0.0000000E+00
  0.3141593E+00    0.6283185E+00    0.9424778E+00    0.1256637E+01    0.1570796E+01    0.1884956E+01    0.2199115E+01    0.2513274E+01    0.2827433E+01    0.3141593E+01
  0.3455752E+01    0.3769911E+01    0.4084071E+01    0.4398230E+01    0.4712389E+01    0.5026548E+01    0.5340708E+01    0.5654867E+01    0.5969026E+01    0.6283185E+01
  0.0000000E+00    0.3141593E+00    0.6283185E+00    0.9424778E+00    0.1256637E+01    0.1570796E+01    0.1884956E+01    0.2199115E+01    0.2513274E+01    0.2827433E+01
  0.3141593E+01    0.3455752E+01    0.3769911E+01    0.4084071E+01    0.4398230E+01    0.4712389E+01    0.5026548E+01    0.5340708E+01    0.5654867E+01    0.5969026E+01
  0.6283185E+01    0.0000000E+00    0.3141593E+00    0.6283185E+00    0.9424778E+00    0.1256637E+01    0.1570796E+01    0.1884956E+01    0.2199115E+01    0.2513274E+01
  0.2827433E+01    0.3141593E+01    0.3455752E+01    0.3769911E+01    0.4084071E+01    0.4398230E+01    0.4712389E+01    0.5026548E+01    0.5340708E+01    0.5654867E+01
  0.5969026E+01    0.6283185E+01    0.0000000E+00    0.3141593E+00    0.6283185E+00    0.9424778E+00    0.1256637E+01    0.1570796E+01    0.1884956E+01    0.2199115E+01
  0.2513274E+01    0.2827433E+01    0.3141593E+01    0.3455752E+01    0.3769911E+01    0.4084071E+01    0.4398230E+01    0.4712389E+01    0.5026548E+01    0.5340708E+01
  0.5654867E+01    0.5969026E+01    0.6283185E+01    0.0000000E+00    0.3141593E+00    0.6283185E+00    0.9424778E+00    0.1256637E+01    0.1570796E+01    0.1884956E+01
  0.2199115E+01    0.2513274E+01    0.2827433E+01    0.3141593E+01    0.3455752E+01    0.3769911E+01    0.4084071E+01    0.4398230E+01    0.4712389E+01    0.5026548E+01
  0.5340708E+01    0.5654867E+01    0.5969026E+01    0.6283185E+01    0.0000000E+00    0.3141593E+00    0.6283185E+00    0.9424778E+00    0.1256637E+01    0.1570796E+01
  0.1884956E+01    0.2199115E+01    0.2513274E+01    0.2827433E+01    0.3141593E+01    0.3455752E+01    0.3769911E+01    0.4084071E+01    0.4398230E+01    0.4712389E+01
  0.5026548E+01    0.5340708E+01    0.5654867E+01    0.5969026E+01    0.6283185E+01    0.0000000E+00    0.3141593E+00    0.6283185E+00    0.9424778E+00    0.1256637E+01
  0.1570796E+01    0.1884956E+01    0.2199115E+01    0.2513274E+01    0.2827433E+01    0.3141593E+01    0.3455752E+01    0.3769911E+01    0.4084071E+01    0.4398230E+01
  0.4712389E+01    0.5026548E+01    0.5340708E+01    0.5654867E+01    0.5969026E+01    0.6283185E+01    0.0000000E+00    0.3141593E+00    0.6283185E+00    0.9424778E+00
  0.1256637E+01    0.1570796E+01    0.1884956E+01    0.2199115E+01    0.2513274E+01    0.2827433E+01    0.3141593E+01    0.3455752E+01    0.3769911E+01    0.4084071E+01
  0.4398230E+01    0.4712389E+01    0.5026548E+01    0.5340708E+01    0.5654867E+01    0.5969026E+01    0.6283185E+01    0.0000000E+00    0.3141593E+00    0.6283185E+00
  0.9424778E+00    0.1256637E+01    0.1570796E+01    0.1884956E+01    0.2199115E+01    0.2513274E+01    0.2827433E+01    0.3141593E+01    0.3455752E+01    0.3769911E+01
  0.4084071E+01    0.4398230E+01    0.4712389E+01    0.5026548E+01    0.5340708E+01    0.5654867E+01    0.5969026E+01    0.6283185E+01    0.0000000E+00    0.3141593E+00
  0.6283185E+00    0.9424778E+00    0.1256637E+01    0.1570796E+01    0.1884956E+01    0.2199115E+01    0.2513274E+01    0.2827433E+01    0.3141593E+01    0.3455752E+01
  0.3769911E+01    0.4084071E+01    0.4398230E+01    0.4712389E+01    0.5026548E+01    0.5340708E+01    0.5654867E+01    0.5969026E+01    0.6283185E+01    0.0000000E+00
  0.3141593E+00    0.6283185E+00    0.9424778E+00    0.1256637E+01    0.1570796E+01    0.1884956E+01    0.2199115E+01    0.2513274E+01    0.2827433E+01    0.3141593E+01
  0.3455752E+01    0.3769911E+01    0.4084071E+01    0.4398230E+01    0.4712389E+01    0.5026548E+01    0.5340708E+01    0.5654867E+01    0.5969026E+01    0.6283185E+01
  0.0000000E+00    0.3141593E+00    0.6283185E+00    0.9424778E+00    0.1256637E+01    0.1570796E+01    0.1884956E+01    0.2199115E+01    0.2513274E+01    0.2827433E+01
  0.3141593E+01    0.3455752E+01    0.3769911E+01    0.4084071E+01    0.4398230E+01    0.4712389E+01    0.5026548E+01    0.5340708E+01    0.5654867E+01    0.5969026E+01
  0.6283185E+01    0.0000000E+00    0.0000000E+00    0.0000000E+00    0.0000000E+00    0.0000000E+00    0.0000000E+00    0.0000000E+00    0.0000000E+00    0.0000000E+00
  0.0000000E+00    0.0000000E+00    0.0000000E+00    0.0000000E+00    0.0000000E+00    0.0000000E+00    0.0000000E+00    0.0000000E+00    0.0000000E+00    0.0000000E+00
  0.0000000E+00    0.0000000E+00    0.3141593E+00    0.3141593E+00    0.3141593E+00    0.3141593E+00    0.3141593E+00    0.3141593E+00    0.3141593E+00    0.3141593E+00
  0.3141593E+00    0.3141593E+00    0.3141593E+00    0.3141593E+00    0.3141593E+00    0.3141593E+00    0.3141593E+00    0.3141593E+00    0.3141593E+00    0.3141593E+00
  0.3141593E+00    0.3141593E+00    0.3141593E+00    0.6283185E+00    0.6283185E+00    0.6283185E+00    0.6283185E+00    0.6283185E+00    0.6283185E+00    0.6283185E+00
  0.6283185E+00    0.6283185E+00    0.6283185E+00    0.6283185E+00    0.6283185E+00    0.6283185E+00    0.6283185E+00    0.6283185E+00    0.6283185E+00    0.6283185E+00
  0.6283185E+00    0.6283185E+00    0.6283185E+00    0.6283185E+00    0.9424778E+00    0.9424778E+00    0.9424778E+00    0.9424778E+00    0.9424778E+00    0.9424778E+00
  0.9424778E+00    0.9424778E+00    0.9424778E+00    0.9424778E+00    0.9424778E+00    0.9424778E+00    0.9424778E+00    0.9424778E+00    0.9424778E+00    0.9424778E+00
  0.9424778E+00    0.9424778E+00    0.9424778E+00    0.9424778E+00    0.9424778E+00    0.1256637E+01    0.1256637E+01    0.1256637E+01    0.1256637E+01    0.1256637E+01
  0.1256637E+01    0.1256637E+01    0.1256637E+01    0.1256637E+01    0.1256637E+01    0.1256637E+01    0.1256637E+01    0.1256637E+01    0.1256637E+01    0.1256637E+01
  0.1256637E+01    0.1256637E+01    0.1256637E+01    0.1256637E+01    0.1256637E+01    0.1256637E+01    0.1570796E+01    0.1570796E+01    0.1570796E+01    0.1570796E+01
  0.1570796E+01    0.1570796E+01    0.1570796E+01    0.1570796E+01    0.1570796E+01    0.1570796E+01    0.1570796E+01    0.1570796E+01    0.1570796E+01    0.1570796E+01
  0.1570796E+01    0.1570796E+01    0.1570796E+01    0.1570796E+01    0.1570796E+01    0.1570796E+01    0.1570796E+01    0.1884956E+01    0.1884956E+01    0.1884956E+01
  0.1884956E+01    0.1884956E+01    0.1884956E+01    0.1884956E+01    0.1884956E+01    0.1884956E+01    0.1884956E+01    0.1884956E+01    0.1884956E+01    0.1884956E+01
  0.1884956E+01    0.1884956E+01    0.1884956E+01    0.1884956E+01    0.1884956E+01    0.1884956E+01    0.1884956E+01    0.1884956E+01    0.2199115E+01    0.2199115E+01
  0.2199115E+01    0.2199115E+01    0.2199115E+01    0.2199115E+01    0.2199115E+01    0.2199115E+01    0.2199115E+01    0.2199115E+01    0.2199115E+01    0.2199115E+01
  0.2199115E+01    0.2199115E+01    0.2199115E+01    0.2199115E+01    0.2199115E+01    0.2199115E+01    0.2199115E+01    0.2199115E+01    0.2199115E+01    0.2513274E+01
  0.2513274E+01    0.2513274E+01    0.2513274E+01    0.2513274E+01    0.2513274E+01    0.2513274E+01    0.2513274E+01    0.2513274E+01    0.2513274E+01    0.2513274E+01
  0.2513274E+01    0.2513274E+01    0.2513274E+01    0.2513274E+01    0.2513274E+01    0.2513274E+01    0.2513274E+01    0.2513274E+01    0.2513274E+01    0.2513274E+01
  0.2827433E+01    0.2827433E+01    0.2827433E+01    0.2827433E+01    0.2827433E+01    0.2827433E+01    0.2827433E+01    0.2827433E+01    0.2827433E+01    0.2827433E+01
  0.2827433E+01    0.2827433E+01    0.2827433E+01    0.2827433E+01    0.2827433E+01    0.2827433E+01    0.2827433E+01    0.2827433E+01    0.2827433E+01    0.2827433E+01
  0.2827433E+01    0.3141593E+01    0.3141593E+01    0.3141593E+01    0.3141593E+01    0.3141593E+01    0.3141593E+01    0.3141593E+01    0.3141593E+01    0.3141593E+01
  0.3141593E+01    0.3141593E+01    0.3141593E+01    0.3141593E+01    0.3141593E+01    0.3141593E+01    0.3141593E+01    0.3141593E+01    0.3141593E+01    0.3141593E+01
  0.3141593E+01    0.3141593E+01    0.3455752E+01    0.3455752E+01    0.3455752E+01    0.3455752E+01    0.3455752E+01    0.3455752E+01    0.3455752E+01    0.3455752E+01
  0.3455752E+01    0.3455752E+01    0.3455752E+01    0.3455752E+01    0.3455752E+01    0.3455752E+01    0.3455752E+01    0.3455752E+01    0.3455752E+01    0.3455752E+01
  0.3455752E+01    0.3455752E+01    0.3455752E+01    0.3769911E+01    0.3769911E+01    0.3769911E+01    0.3769911E+01    0.3769911E+01    0.3769911E+01    0.3769911E+01
  0.3769911E+01    0.3769911E+01    0.3769911E+01    0.3769911E+01    0.3769911E+01    0.3769911E+01    0.3769911E+01    0.3769911E+01    0.3769911E+01    0.3769911E+01
  0.3769911E+01    0.3769911E+01    0.3769911E+01    0.3769911E+01    0.4084071E+01    0.4084071E+01    0.4084071E+01    0.4084071E+01    0.4084071E+01    0.4084071E+01
  0.4084071E+01    0.4084071E+01    0.4084071E+01    0.4084071E+01    0.4084071E+01    0.4084071E+01    0.4084071E+01    0.4084071E+01    0.4084071E+01    0.4084071E+01
  0.4084071E+01    0.4084071E+01    0.4084071E+01    0.4084071E+01    0.4084071E+01    0.4398230E+01    0.4398230E+01    0.4398230E+01    0.4398230E+01    0.4398230E+01
  0.4398230E+01    0.4398230E+01    0.4398230E+01    0.4398230E+01    0.4398230E+01    0.4398230E+01    0.4398230E+01    0.4398230E+01    0.4398230E+01    0.4398230E+01
  0.4398230E+01    0.4398230E+01    0.4398230E+01    0.4398230E+01    0.4398230E+01    0.4398230E+01    0.4712389E+01    0.4712389E+01    0.4712389E+01    0.4712389E+01
  0.4712389E+01    0.4712389E+01    0.4712389E+01    0.4712389E+01    0.4712389E+01    0.4712389E+01    0.4712389E+01    0.4712389E+01    0.4712389E+01    0.4712389E+01
  0.4712389E+01    0.4712389E+01    0.4712389E+01    0.4712389E+01    0.4712389E+01    0.4712389E+01    0.4712389E+01    0.5026548E+01    0.5026548E+01    0.5026548E+01
  0.5026548E+01    0.5026548E+01    0.5026548E+01    0.5026548E+01    0.5026548E+01    0.5026548E+01    0.5026548E+01    0.5026548E+01    0.5026548E+01    0.5026548E+01
  0.5026548E+01    0.5026548E+01    0.5026548E+01    0.5026548E+01    0.5026548E+01    0.5026548E+01    0.5026548E+01    0.5026548E+01    0.5340708E+01    0.5340708E+01
  0.5340708E+01    0.5340708E+01    0.5340708E+01    0.5340708E+01    0.5340708E+01    0.5340708E+01    0.5340708E+01    0.5340708E+01    0.5340708E+01    0.5340708E+01
  0.5340708E+01    0.5340708E+01    0.5340708E+01    0.5340708E+01    0.5340708E+01    0.5340708E+01    0.5340708E+01    0.5340708E+01    0.5340708E+01    0.5654867E+01
  0.5654867E+01    0.5654867E+01    0.5654867E+01    0.5654867E+01    0.5654867E+01    0.5654867E+01    0.5654867E+01    0.5654867E+01    0.5654867E+01    0.5654867E+01
  0.5654867E+01    0.5654867E+01    0.5654867E+01    0.5654867E+01    0.5654867E+01    0.5654867E+01    0.5654867E+01    0.5654867E+01    0.5654867E+01    0.5654867E+01
  0.5969026E+01    0.5969026E+01    0.5969026E+01    0.5969026E+01    0.5969026E+01    0.5969026E+01    0.5969026E+01    0.5969026E+01    0.5969026E+01    0.5969026E+01
  0.5969026E+01    0.5969026E+01    0.5969026E+01    0.5969026E+01    0.5969026E+01    0.5969026E+01    0.5969026E+01    0.5969026E+01    0.5969026E+01    0.5969026E+01
  0.5969026E+01    0.6283185E+01    0.6283185E+01    0.6283185E+01    0.6283185E+01    0.6283185E+01    0.6283185E+01    0.6283185E+01    0.6283185E+01    0.6283185E+01
  0.6283185E+01    0.6283185E+01    0.6283185E+01    0.6283185E+01    0.6283185E+01    0.6283185E+01    0.6283185E+01    0.6283185E+01    0.6283185E+01    0.6283185E+01
  0.6283185E+01    0.6283185E+01   -0.1381804E+00   -0.1246497E+00   -0.9891520E-01   -0.6349498E-01   -0.2185521E-01    0.2193001E-01    0.6357907E-01    0.9902281E-01
  0.1247906E+00    0.1382002E+00    0.1380805E+00    0.1245871E+00    0.9888308E-01    0.6348211E-01    0.2185657E-01   -0.2191375E-01   -0.6354319E-01   -0.9895611E-01
 -0.1246839E+00   -0.1382085E+00   -0.4010472E+00   -0.3617853E+00   -0.2871072E+00   -0.1843220E+00   -0.6349018E-01    0.6356189E-01    0.1843997E+00    0.2871959E+00
  0.3618755E+00    0.4010679E+00    0.4009996E+00    0.3617425E+00    0.2870811E+00    0.1843107E+00    0.6349155E-01   -0.6354735E-01   -0.1843695E+00   -0.2871474E+00
 -0.3618190E+00   -0.4010749E+00   -0.6246553E+00   -0.5635054E+00   -0.4471938E+00   -0.2871051E+00   -0.9890945E-01    0.9897182E-01    0.2871690E+00    0.4472581E+00
  0.5635603E+00    0.6246743E+00    0.6246403E+00    0.5634847E+00    0.4471783E+00    0.2870978E+00    0.9891069E-01   -0.9896161E-01   -0.2871497E+00   -0.4472321E+00
 -0.5635380E+00   -0.6246823E+00   -0.7871160E+00   -0.7100640E+00   -0.5635042E+00   -0.3617825E+00   -0.1246447E+00    0.1246965E+00    0.3618333E+00    0.5635514E+00
  0.7101012E+00    0.7871336E+00    0.7871156E+00    0.7100569E+00    0.5634973E+00    0.3617790E+00    0.1246458E+00   -0.1246904E+00   -0.3618231E+00   -0.5635401E+00
 -0.7100953E+00   -0.7871428E+00   -0.8725272E+00   -0.7871151E+00   -0.6246531E+00   -0.4010441E+00   -0.1381763E+00    0.1382186E+00    0.4010846E+00    0.6246894E+00
  0.7871432E+00    0.8725433E+00    0.8725327E+00    0.7871152E+00    0.6246516E+00    0.4010432E+00    0.1381773E+00   -0.1382156E+00   -0.4010804E+00   -0.6246863E+00
 -0.7871448E+00   -0.8725536E+00   -0.8725278E+00   -0.7871161E+00   -0.6246548E+00   -0.4010464E+00   -0.1381795E+00    0.1382144E+00    0.4010795E+00    0.6246840E+00
  0.7871392E+00    0.8725429E+00    0.8725360E+00    0.7871201E+00    0.6246564E+00    0.4010473E+00    0.1381804E+00   -0.1382133E+00   -0.4010788E+00   -0.6246853E+00
 -0.7871443E+00   -0.8725532E+00   -0.7871174E+00   -0.7100670E+00   -0.5635089E+00   -0.3617894E+00   -0.1246543E+00    0.1246836E+00    0.3618172E+00    0.5635336E+00
  0.7100871E+00    0.7871321E+00    0.7871272E+00    0.7100731E+00    0.5635125E+00    0.3617914E+00    0.1246552E+00   -0.1246837E+00   -0.3618185E+00   -0.5635373E+00
 -0.7100939E+00   -0.7871428E+00   -0.6246577E+00   -0.5635101E+00   -0.4472012E+00   -0.2871160E+00   -0.9892492E-01    0.9895033E-01    0.2871401E+00    0.4472228E+00
  0.5635283E+00    0.6246716E+00    0.6246678E+00    0.5635172E+00    0.4472058E+00    0.2871186E+00    0.9892589E-01   -0.9895094E-01   -0.2871426E+00   -0.4472277E+00
 -0.5635360E+00   -0.6246828E+00   -0.4010504E+00   -0.3617914E+00   -0.2871166E+00   -0.1843358E+00   -0.6351016E-01    0.6353301E-01    0.1843576E+00    0.2871364E+00
  0.3618083E+00    0.4010640E+00    0.4010609E+00    0.3617991E+00    0.2871218E+00    0.1843390E+00    0.6351125E-01   -0.6353391E-01   -0.1843606E+00   -0.2871418E+00
 -0.3618164E+00   -0.4010748E+00   -0.1381837E+00   -0.1246563E+00   -0.9892542E-01   -0.6350998E-01   -0.2187691E-01    0.2189826E-01    0.6353045E-01    0.9894417E-01
  0.1246727E+00    0.1381976E+00    0.1381948E+00    0.1246644E+00    0.9893108E-01    0.6351340E-01    0.2187810E-01   -0.2189920E-01   -0.6353360E-01   -0.9894984E-01
 -0.1246810E+00   -0.1382085E+00    0.1382098E+00    0.1246822E+00    0.9895072E-01    0.6353421E-01    0.2189932E-01   -0.2187856E-01   -0.6351428E-01   -0.9893244E-01
 -0.1246662E+00   -0.1381965E+00   -0.1381992E+00   -0.1246740E+00   -0.9894487E-01   -0.6353066E-01   -0.2189799E-01    0.2187770E-01    0.6351107E-01    0.9892672E-01
  0.1246578E+00    0.1381852E+00    0.4010763E+00    0.3618174E+00    0.2871424E+00    0.1843607E+00    0.6353341E-01   -0.6351238E-01   -0.1843406E+00   -0.2871239E+00
 -0.3618013E+00   -0.4010629E+00   -0.4010656E+00   -0.3618092E+00   -0.2871365E+00   -0.1843571E+00   -0.6353192E-01    0.6351161E-01    0.1843376E+00    0.2871184E+00
  0.3617931E+00    0.4010522E+00    0.6246844E+00    0.5635371E+00    0.4472281E+00    0.2871423E+00    0.9894991E-01   -0.9892778E-01   -0.2871212E+00   -0.4472088E+00
 -0.5635204E+00   -0.6246704E+00   -0.6246733E+00   -0.5635289E+00   -0.4472223E+00   -0.2871386E+00   -0.9894836E-01    0.9892726E-01    0.2871184E+00    0.4472034E+00
  0.5635123E+00    0.6246595E+00    0.7871443E+00    0.7100949E+00    0.5635375E+00    0.3618180E+00    0.1246821E+00   -0.1246579E+00   -0.3617950E+00   -0.5635168E+00
 -0.7100776E+00   -0.7871309E+00   -0.7871343E+00   -0.7100873E+00   -0.5635320E+00   -0.3618146E+00   -0.1246804E+00    0.1246577E+00    0.3617926E+00    0.5635119E+00
  0.7100696E+00    0.7871193E+00    0.8725551E+00    0.7871454E+00    0.6246855E+00    0.4010781E+00    0.1382113E+00   -0.1381839E+00   -0.4010523E+00   -0.6246626E+00
 -0.7871267E+00   -0.8725415E+00   -0.8725456E+00   -0.7871387E+00   -0.6246809E+00   -0.4010750E+00   -0.1382095E+00    0.1381841E+00    0.4010507E+00    0.6246585E+00
  0.7871193E+00    0.8725306E+00    0.8725560E+00    0.7871463E+00    0.6246867E+00    0.4010797E+00    0.1382134E+00   -0.1381815E+00   -0.4010497E+00   -0.6246605E+00
 -0.7871256E+00   -0.8725417E+00   -0.8725472E+00   -0.7871411E+00   -0.6246836E+00   -0.4010775E+00   -0.1382117E+00    0.1381825E+00    0.4010495E+00    0.6246576E+00
  0.7871188E+00    0.8725302E+00    0.7871451E+00    0.7100970E+00    0.5635409E+00    0.3618229E+00    0.1246885E+00   -0.1246503E+00   -0.3617870E+00   -0.5635098E+00
 -0.7100735E+00   -0.7871316E+00   -0.7871396E+00   -0.7100952E+00   -0.5635404E+00   -0.3618223E+00   -0.1246868E+00    0.1246527E+00    0.3617889E+00    0.5635094E+00
  0.7100682E+00    0.7871190E+00    0.6246852E+00    0.5635403E+00    0.4472337E+00    0.2871505E+00    0.9896078E-01   -0.9891436E-01   -0.2871063E+00   -0.4471949E+00
 -0.5635118E+00   -0.6246720E+00   -0.6246844E+00   -0.5635442E+00   -0.4472378E+00   -0.2871521E+00   -0.9895916E-01    0.9891883E-01    0.2871124E+00    0.4471995E+00
  0.5635100E+00    0.6246595E+00    0.4010790E+00    0.3618223E+00    0.2871501E+00    0.1843720E+00    0.6354887E-01   -0.6349231E-01   -0.1843164E+00   -0.2870987E+00
 -0.3617835E+00   -0.4010656E+00   -0.4010874E+00   -0.3618363E+00   -0.2871612E+00   -0.1843771E+00   -0.6354737E-01    0.6350018E-01    0.1843295E+00    0.2871129E+00
  0.3617901E+00    0.4010514E+00    0.1382122E+00    0.1246878E+00    0.9895992E-01    0.6354785E-01    0.2191880E-01   -0.2185151E-01   -0.6347798E-01   -0.9888742E-01
 -0.1246245E+00   -0.1382002E+00   -0.1382456E+00   -0.1247203E+00   -0.9898128E-01   -0.6355731E-01   -0.2191724E-01    0.2186375E-01    0.6350149E-01    0.9892044E-01
  0.1246539E+00    0.1381840E+00    0.1382092E+00    0.4010753E+00    0.6246828E+00    0.7871437E+00    0.8725546E+00    0.8725556E+00    0.7871467E+00    0.6246810E+00
  0.4010152E+00    0.1378220E+00   -0.1382537E+00   -0.4010599E+00   -0.6246590E+00   -0.7871196E+00   -0.8725300E+00   -0.8725291E+00   -0.7871193E+00   -0.6246588E+00
 -0.4010501E+00   -0.1381845E+00    0.1246787E+00    0.3618134E+00    0.5635321E+00    0.7100891E+00    0.7871377E+00    0.7871353E+00    0.7100802E+00    0.5635076E+00
  0.3617412E+00    0.1244941E+00   -0.1247377E+00   -0.3618254E+00   -0.5635280E+00   -0.7100792E+00   -0.7871259E+00   -0.7871237E+00   -0.7100729E+00   -0.5635146E+00
 -0.3617945E+00   -0.1246594E+00    0.9894469E-01    0.2871357E+00    0.4472201E+00    0.5635273E+00    0.6246720E+00    0.6246677E+00    0.5635129E+00    0.4471896E+00
  0.2870774E+00    0.9885159E-01   -0.9899273E-01   -0.2871577E+00   -0.4472279E+00   -0.5635283E+00   -0.6246706E+00   -0.6246676E+00   -0.5635187E+00   -0.4472087E+00
 -0.2871227E+00   -0.9893090E-01    0.6352652E-01    0.1843522E+00    0.2871321E+00    0.3618050E+00    0.4010609E+00    0.4010563E+00    0.3617904E+00    0.2871050E+00
  0.1843101E+00    0.6347264E-01   -0.6356164E-01   -0.1843745E+00   -0.2871449E+00   -0.3618124E+00   -0.4010664E+00   -0.4010631E+00   -0.3618022E+00   -0.2871260E+00
 -0.1843441E+00   -0.6351747E-01    0.2189080E-01    0.6352398E-01    0.9893864E-01    0.1246678E+00    0.1381926E+00    0.1381886E+00    0.1246554E+00    0.9891725E-01
  0.6349417E-01    0.2185619E-01   -0.2191654E-01   -0.6354341E-01   -0.9895243E-01   -0.1246781E+00   -0.1382016E+00   -0.1381986E+00   -0.1246690E+00   -0.9893646E-01
 -0.6351973E-01   -0.2188553E-01   -0.2188720E-01   -0.6352178E-01   -0.9893895E-01   -0.1246720E+00   -0.1382022E+00   -0.1382054E+00   -0.1246817E+00   -0.9895490E-01
 -0.6354278E-01   -0.2191054E-01    0.2186777E-01    0.6350561E-01    0.9892594E-01    0.1246611E+00    0.1381920E+00    0.1381944E+00    0.1246685E+00    0.9893840E-01
  0.6352308E-01    0.2188941E-01   -0.6352194E-01   -0.1843490E+00   -0.2871311E+00   -0.3618075E+00   -0.4010684E+00   -0.4010709E+00   -0.3618148E+00   -0.2871427E+00
 -0.1843637E+00   -0.6353808E-01    0.6350734E-01    0.1843360E+00    0.2871199E+00    0.3617975E+00    0.4010587E+00    0.4010605E+00    0.3618030E+00    0.2871290E+00
  0.1843484E+00    0.6352213E-01   -0.9893836E-01   -0.2871304E+00   -0.4472166E+00   -0.5635267E+00   -0.6246754E+00   -0.6246771E+00   -0.5635318E+00   -0.4472247E+00
 -0.2871406E+00   -0.9894940E-01    0.9892753E-01    0.2871205E+00    0.4472076E+00    0.5635181E+00    0.6246669E+00    0.6246682E+00    0.5635219E+00    0.4472138E+00
  0.2871288E+00    0.9893740E-01   -0.1246700E+00   -0.3618054E+00   -0.5635254E+00   -0.7100839E+00   -0.7871349E+00   -0.7871360E+00   -0.7100873E+00   -0.5635307E+00
 -0.3618120E+00   -0.1246770E+00    0.1246622E+00    0.3617982E+00    0.5635186E+00    0.7100773E+00    0.7871282E+00    0.7871289E+00    0.7100796E+00    0.5635224E+00
  0.3618032E+00    0.1246682E+00   -0.1381976E+00   -0.4010642E+00   -0.6246722E+00   -0.7871331E+00   -0.8725442E+00   -0.8725449E+00   -0.7871351E+00   -0.6246752E+00
 -0.4010680E+00   -0.1382015E+00    0.1381928E+00    0.4010597E+00    0.6246678E+00    0.7871288E+00    0.8725397E+00    0.8725401E+00    0.7871298E+00    0.6246695E+00
  0.4010620E+00    0.1381956E+00   -0.1381975E+00   -0.4010640E+00   -0.6246717E+00   -0.7871323E+00   -0.8725431E+00   -0.8725433E+00   -0.7871330E+00   -0.6246727E+00
 -0.4010652E+00   -0.1381987E+00    0.1381955E+00    0.4010621E+00    0.6246698E+00    0.7871303E+00    0.8725408E+00    0.8725408E+00    0.7871302E+00    0.6246697E+00
  0.4010621E+00    0.1381957E+00   -0.1246700E+00   -0.3618050E+00   -0.5635242E+00   -0.7100818E+00   -0.7871315E+00   -0.7871313E+00   -0.7100811E+00   -0.5635232E+00
 -0.3618036E+00   -0.1246683E+00    0.1246705E+00    0.3618056E+00    0.5635246E+00    0.7100819E+00    0.7871314E+00    0.7871310E+00    0.7100807E+00    0.5635228E+00
  0.3618032E+00    0.1246681E+00   -0.9893868E-01   -0.2871300E+00   -0.4472150E+00   -0.5635234E+00   -0.6246699E+00   -0.6246693E+00   -0.5635213E+00   -0.4472118E+00
 -0.2871260E+00   -0.9893413E-01    0.9894210E-01    0.2871332E+00    0.4472178E+00    0.5635258E+00    0.6246720E+00    0.6246713E+00    0.5635235E+00    0.4472141E+00
  0.2871285E+00    0.9893678E-01   -0.6352290E-01   -0.1843490E+00   -0.2871295E+00   -0.3618035E+00   -0.4010614E+00   -0.4010601E+00   -0.3617999E+00   -0.2871238E+00
 -0.1843417E+00   -0.6351488E-01    0.6352919E-01    0.1843547E+00    0.2871346E+00    0.3618079E+00    0.4010655E+00    0.4010643E+00    0.3618044E+00    0.2871289E+00
  0.1843474E+00    0.6352087E-01   -0.2188980E-01   -0.6352310E-01   -0.9893814E-01   -0.1246681E+00   -0.1381942E+00   -0.1381922E+00   -0.1246624E+00   -0.9892908E-01
 -0.6351155E-01   -0.2187706E-01    0.2189887E-01    0.6353124E-01    0.9894503E-01    0.1246741E+00    0.1381998E+00    0.1381981E+00    0.1246692E+00    0.9893716E-01
  0.6352062E-01    0.2188663E-01    0.2188612E-01    0.6352067E-01    0.9893775E-01    0.1246706E+00    0.1382005E+00    0.1382033E+00    0.1246789E+00    0.9895099E-01
  0.6353765E-01    0.2190473E-01   -0.2187303E-01   -0.6350984E-01   -0.9892909E-01   -0.1246635E+00   -0.1381939E+00   -0.1381960E+00   -0.1246699E+00   -0.9893981E-01
 -0.6352439E-01   -0.2189071E-01    0.6351882E-01    0.1843459E+00    0.2871283E+00    0.3618052E+00    0.4010669E+00    0.4010707E+00    0.3618165E+00    0.2871470E+00
  0.1843706E+00    0.6354613E-01   -0.6350097E-01   -0.1843323E+00   -0.2871187E+00   -0.3617981E+00   -0.4010605E+00   -0.4010630E+00   -0.3618060E+00   -0.2871322E+00
 -0.1843517E+00   -0.6352559E-01    0.9893249E-01    0.2871249E+00    0.4472118E+00    0.5635228E+00    0.6246733E+00    0.6246781E+00    0.5635375E+00    0.4472373E+00
  0.2871609E+00    0.9897394E-01   -0.9890849E-01   -0.2871093E+00   -0.4472029E+00   -0.5635178E+00   -0.6246691E+00   -0.6246720E+00   -0.5635267E+00   -0.4472190E+00
 -0.2871344E+00   -0.9894312E-01    0.1246617E+00    0.3617975E+00    0.5635182E+00    0.7100780E+00    0.7871312E+00    0.7871366E+00    0.7100952E+00    0.5635507E+00
  0.3618493E+00    0.1247280E+00   -0.1246281E+00   -0.3617811E+00   -0.5635125E+00   -0.7100777E+00   -0.7871319E+00   -0.7871346E+00   -0.7100866E+00   -0.5635299E+00
 -0.3618111E+00   -0.1246767E+00    0.1381868E+00    0.4010536E+00    0.6246623E+00    0.7871243E+00    0.8725373E+00    0.8725421E+00    0.7871404E+00    0.6246973E+00
  0.4011247E+00    0.1383106E+00   -0.1381434E+00   -0.4010422E+00   -0.6246652E+00   -0.7871332E+00   -0.8725462E+00   -0.8725485E+00   -0.7871399E+00   -0.6246790E+00
 -0.4010723E+00   -0.1382071E+00   -0.3282471E+00   -0.2942523E+00   -0.2391999E+00   -0.1840972E+00   -0.1500977E+00   -0.1501999E+00   -0.1843287E+00   -0.2395714E+00
 -0.2948711E+00   -0.3293522E+00   -0.3290319E+00   -0.2949797E+00   -0.2396882E+00   -0.1845654E+00   -0.1505265E+00   -0.1502968E+00   -0.1843802E+00   -0.2395515E+00
 -0.2943561E+00   -0.3283609E+00   -0.2942851E+00   -0.2602945E+00   -0.2052333E+00   -0.1501423E+00   -0.1161378E+00   -0.1162262E+00   -0.1503755E+00   -0.2056267E+00
 -0.2609040E+00   -0.2950843E+00   -0.2950537E+00   -0.2609888E+00   -0.2057124E+00   -0.1505577E+00   -0.1164928E+00   -0.1163075E+00   -0.1503586E+00   -0.2055010E+00
 -0.2603821E+00   -0.2943654E+00   -0.2392566E+00   -0.2052626E+00   -0.1502090E+00   -0.9512724E-01   -0.6110267E-01   -0.6119499E-01   -0.9535019E-01   -0.1505747E+00
 -0.2058373E+00   -0.2399477E+00   -0.2399475E+00   -0.2059095E+00   -0.1506614E+00   -0.9546053E-01   -0.6140654E-01   -0.6125695E-01   -0.9524990E-01   -0.1504156E+00
 -0.2053529E+00   -0.2392761E+00   -0.1841556E+00   -0.1501762E+00   -0.9513196E-01   -0.4003852E-01   -0.6022552E-02   -0.6123738E-02   -0.4025431E-01   -0.9548420E-01
 -0.1507445E+00   -0.1848038E+00   -0.1848238E+00   -0.1508083E+00   -0.9553957E-01   -0.4035452E-01   -0.6316874E-02   -0.6136083E-02   -0.4015245E-01   -0.9534006E-01