 TITLE = "NAVIER-STOKES OUTPUT"
 VARIABLES = "X", "Y", "U", "V", "P", "Pex", "Vor"
 ZONE I =   21, J =   21, DATAPACKING = BLOCK, VARLOCATION=(3=CELLCENTERED, 4=CELLCENTERED,5=CELLCENTERED,6=CELLCENTERED, 7=CELLCENTERED)
  0.0000000E+00    0.3141593E+00    0.6283185E+00    0.9424778E+00    0.1256637E+01    0.1570796E+01    0.1884956E+01    0.2199115E+01    0.2513274E+01    0.2827433E+01
  0.3141593E+01    0.3455752E+01    0.3769911E+01    0.4084071E+01    0.4398230E+01    0.4712389E+01    0.5026548E+01    0.5340708E+01    0.5654867E+01    0.5969026E+01
  0.6283185E+01    0.0000000E+00    0.3141593E+00    0.6283185E+00    0.9424778E+00    0.1256637E+01    0.1570796E+01    0.1884956E+01    0.2199115E+01    0.2513274E+01
  0.2827433E+01    0.3141593E+01    0.3455752E+01    0.3769911E+01    0.4084071E+01    0.4398230E+01    0.4712389E+01    0.5026548E+01    0.5340708E+01    0.5654867E+01
  0.5969026E+01    0.6283185E+01    0.0000000E+00    0.3141593E+00    0.6283185E+00    0.9424778E+00    0.1256637E+01    0.1570796E+01    0.1884956E+01    0.2199115E+01
  0.2513274E+01    0.2827433E+01    0.3141593E+01    0.3455752E+01    0.3769911E+01    0.4084071E+01    0.4398230E+01    0.4712389E+01    0.5026548E+01    0.5340708E+01
  0.5654867E+01    0.5969026E+01    0.6283185E+01    0.0000000E+00    0.3141593E+00    0.6283185E+00    0.9424778E+00    0.1256637E+01    0.1570796E+01    0.1884956E+01
  0.2199115E+01    0.2513274E+01    0.2827433E+01    0.3141593E+01    0.3455752E+01    0.3769911E+01    0.4084071E+01    0.4398230E+01    0.4712389E+01    0.5026548E+01
  0.5340708E+01    0.5654867E+01    0.5969026E+01    0.6283185E+01    0.0000000E+00    0.3141593E+00    0.6283185E+00    0.9424778E+00    0.1256637E+01    0.1570796E+01
  0.1884956E+01    0.2199115E+01    0.2513274E+01    0.2827433E+01    0.3141593E+01    0.3455752E+01    0.3769911E+01    0.4084071E+01    0.4398230E+01    0.4712389E+01
  0.5026548E+01    0.5340708E+01    0.5654867E+01    0.5969026E+01    0.6283185E+01    0.0000000E+00    0.3141593E+00    0.6283185E+00    0.9424778E+00    0.1256637E+01
  0.1570796E+01    0.1884956E+01    0.2199115E+01    0.2513274E+01    0.2827433E+01    0.3141593E+01    0.3455752E+01    0.3769911E+01    0.4084071E+01    0.4398230E+01
  0.4712389E+01    0.5026548E+01    0.5340708E+01    0.5654867E+01    0.5969026E+01    0.6283185E+01    0.0000000E+00    0.3141593E+00    0.6283185E+00    0.9424778E+00
  0.1256637E+01    0.1570796E+01    0.1884956E+01    0.2199115E+01    0.2513274E+01    0.2827433E+01    0.3141593E+01    0.3455752E+01    0.3769911E+01    0.4084071E+01
  0.4398230E+01    0.4712389E+01    0.5026548E+01    0.5340708E+01    0.5654867E+01    0.5969026E+01    0.6283185E+01    0.0000000E+00    0.3141593E+00    0.6283185E+00
  0.9424778E+00    0.1256637E+01    0.1570796E+01    0.1884956E+01    0.2199115E+01    0.2513274E+01    0.2827433E+01    0.3141593E+01    0.3455752E+01    0.3769911E+01
  0.4084071E+01    0.4398230E+01    0.4712389E+01    0.5026548E+01    0.5340708E+01    0.5654867E+01    0.5969026E+01    0.6283185E+01    0.0000000E+00    0.3141593E+00
  0.6283185E+00    0.9424778E+00    0.1256637E+01    0.1570796E+01    0.1884956E+01    0.2199115E+01    0.2513274E+01    0.2827433E+01    0.3141593E+01    0.3455752E+01
  0.3769911E+01    0.4084071E+01    0.4398230E+01    0.4712389E+01    0.5026548E+01    0.5340708E+01    0.5654867E+01    0.5969026E+01    0.6283185E+01    0.0000000E+00
  0.3141593E+00    0.6283185E+00    0.9424778E+00    0.1256637E+01    0.1570796E+01    0.1884956E+01    0.2199115E+01    0.2513274E+01    0.2827433E+01    0.3141593E+01
  0.3455752E+01    0.3769911E+01    0.4084071E+01    0.4398230E+01    0.4712389E+01    0.5026548E+01    0.5340708E+01    0.5654867E+01    0.5969026E+01    0.6283185E+01
  0.0000000E+00    0.3141593E+00    0.6283185E+00    0.9424778E+00    0.1256637E+01    0.1570796E+01    0.1884956E+01    0.2199115E+01    0.2513274E+01    0.2827433E+01
  0.3141593E+01    0.3455752E+01    0.3769911E+01    0.4084071E+01    0.4398230E+01    0.4712389E+01    0.5026548E+01    0.5340708E+01    0.5654867E+01    0.5969026E+01
  0.6283185E+01    0.0000000E+00    0.3141593E+00    0.6283185E+00    0.9424778E+00    0.1256637E+01    0.1570796E+01    0.1884956E+01    0.2199115E+01    0.2513274E+01
  0.2827433E+01    0.3141593E+01    0.3455752E+01    0.3769911E+01    0.4084071E+01    0.4398230E+01    0.4712389E+01    0.5026548E+01    0.5340708E+01    0.5654867E+01
  0.5969026E+01    0.6283185E+01    0.0000000E+00    0.3141593E+00    0.6283185E+00    0.9424778E+00    0.1256637E+01    0.1570796E+01    0.1884956E+01    0.2199115E+01
  0.2513274E+01    0.2827433E+01    0.3141593E+01    0.3455752E+01    0.3769911E+01    0.4084071E+01    0.4398230E+01    0.4712389E+01    0.5026548E+01    0.5340708E+01
  0.5654867E+01    0.5969026E+01    0.6283185E+01    0.0000000E+00    0.3141593E+00    0.6283185E+00    0.9424778E+00    0.1256637E+01    0.1570796E+01    0.1884956E+01
  0.2199115E+01    0.2513274E+01    0.2827433E+01    0.3141593E+01    0.3455752E+01    0.3769911E+01    0.4084071E+01    0.4398230E+01    0.4712389E+01    0.5026548E+01
  0.5340708E+01    0.5654867E+01    0.5969026E+01    0.6283185E+01    0.0000000E+00    0.3141593E+00    0.6283185E+00    0.9424778E+00    0.1256637E+01    0.1570796E+01
  0.1884956E+01    0.2199115E+01    0.2513274E+01    0.2827433E+01    0.3141593E+01    0.3455752E+01    0.3769911E+01    0.4084071E+01    0.4398230E+01    0.4712389E+01
  0.5026548E+01    0.5340708E+01    0.5654867E+01    0.5969026E+01    0.6283185E+01    0.0000000E+00    0.3141593E+00    0.6283185E+00    0.9424778E+00    0.1256637E+01
  0.1570796E+01    0.1884956E+01    0.2199115E+01    0.2513274E+01    0.2827433E+01    0.3141593E+01    0.3455752E+01    0.3769911E+01    0.4084071E+01    0.4398230E+01
  0.4712389E+01    0.5026548E+01    0.5340708E+01    0.5654867E+01    0.5969026E+01    0.6283185E+01    0.0000000E+00    0.3141593E+00    0.6283185E+00    0.9424778E+00
  0.1256637E+01    0.1570796E+01    0.1884956E+01    0.2199115E+01    0.2513274E+01    0.2827433E+01    0.3141593E+01    0.3455752E+01    0.3769911E+01    0.4084071E+01
  0.4398230E+01    0.4712389E+01    0.5026548E+01    0.5340708E+01    0.5654867E+01    0.5969026E+01    0.6283185E+01    0.0000000E+00    0.3141593E+00    0.6283185E+00
  0.9424778E+00    0.1256637E+01    0.1570796E+01    0.1884956E+01    0.2199115E+01    0.2513274E+01    0.2827433E+01    0.3141593E+01    0.3455752E+01    0.3769911E+01
  0.4084071E+01    0.4398230E+01    0.4712389E+01    0.5026548E+01    0.5340708E+01    0.5654867E+01    0.5969026E+01    0.6283185E+01    0.0000000E+00    0.3141593E+00
  0.6283185E+00    0.9424778E+00    0.1256637E+01    0.1570796E+01    0.1884956E+01    0.2199115E+01    0.2513274E+01    0.2827433E+01    0.3141593E+01    0.3455752E+01
  0.3769911E+01    0.4084071E+01    0.4398230E+01    0.4712389E+01    0.5026548E+01    0.5340708E+01    0.5654867E+01    0.5969026E+01    0.6283185E+01    0.0000000E+00
  0.3141593E+00    0.6283185E+00    0.9424778E+00    0.1256637E+01    0.1570796E+01    0.1884956E+01    0.2199115E+01    0.2513274E+01    0.2827433E+01    0.3141593E+01
  0.3455752E+01    0.3769911E+01    0.4084071E+01    0.4398230E+01    0.4712389E+01    0.5026548E+01    0.5340708E+01    0.5654867E+01    0.5969026E+01    0.6283185E+01
  0.0000000E+00    0.3141593E+00    0.6283185E+00    0.9424778E+00    0.1256637E+01    0.1570796E+01    0.1884956E+01    0.2199115E+01    0.2513274E+01    0.2827433E+01
  0.3141593E+01    0.3455752E+01    0.3769911E+01    0.4084071E+01    0.4398230E+01    0.4712389E+01    0.5026548E+01    0.5340708E+01    0.5654867E+01    0.5969026E+01
  0.6283185E+01    0.0000000E+00    0.0000000E+00    0.0000000E+00    0.0000000E+00    0.0000000E+00    0.0000000E+00    0.0000000E+00    0.0000000E+00    0.0000000E+00
  0.0000000E+00    0.0000000E+00    0.0000000E+00    0.0000000E+00    0.0000000E+00    0.0000000E+00    0.0000000E+00    0.0000000E+00    0.0000000E+00    0.0000000E+00
  0.0000000E+00    0.0000000E+00    0.3141593E+00    0.3141593E+00    0.3141593E+00    0.3141593E+00    0.3141593E+00    0.3141593E+00    0.3141593E+00    0.3141593E+00
  0.3141593E+00    0.3141593E+00    0.3141593E+00    0.3141593E+00    0.3141593E+00    0.3141593E+00    0.3141593E+00    0.3141593E+00    0.3141593E+00    0.3141593E+00
  0.3141593E+00    0.3141593E+00    0.3141593E+00    0.6283185E+00    0.6283185E+00    0.6283185E+00    0.6283185E+00    0.6283185E+00    0.6283185E+00    0.6283185E+00
  0.6283185E+00    0.6283185E+00    0.6283185E+00    0.6283185E+00    0.6283185E+00    0.6283185E+00    0.6283185E+00    0.6283185E+00    0.6283185E+00    0.6283185E+00
  0.6283185E+00    0.6283185E+00    0.6283185E+00    0.6283185E+00    0.9424778E+00    0.9424778E+00    0.9424778E+00    0.9424778E+00    0.9424778E+00    0.9424778E+00
  0.9424778E+00    0.9424778E+00    0.9424778E+00    0.9424778E+00    0.9424778E+00    0.9424778E+00    0.9424778E+00    0.9424778E+00    0.9424778E+00    0.9424778E+00
  0.9424778E+00    0.9424778E+00    0.9424778E+00    0.9424778E+00    0.9424778E+00    0.1256637E+01    0.1256637E+01    0.1256637E+01    0.1256637E+01    0.1256637E+01
  0.1256637E+01    0.1256637E+01    0.1256637E+01    0.1256637E+01    0.1256637E+01    0.1256637E+01    0.1256637E+01    0.1256637E+01    0.1256637E+01    0.1256637E+01
  0.1256637E+01    0.1256637E+01    0.1256637E+01    0.1256637E+01    0.1256637E+01    0.1256637E+01    0.1570796E+01    0.1570796E+01    0.1570796E+01    0.1570796E+01
  0.1570796E+01    0.1570796E+01    0.1570796E+01    0.1570796E+01    0.1570796E+01    0.1570796E+01    0.1570796E+01    0.1570796E+01    0.1570796E+01    0.1570796E+01
  0.1570796E+01    0.1570796E+01    0.1570796E+01    0.1570796E+01    0.1570796E+01    0.1570796E+01    0.1570796E+01    0.1884956E+01    0.1884956E+01    0.1884956E+01
  0.1884956E+01    0.1884956E+01    0.1884956E+01    0.1884956E+01    0.1884956E+01    0.1884956E+01    0.1884956E+01    0.1884956E+01    0.1884956E+01    0.1884956E+01
  0.1884956E+01    0.1884956E+01    0.1884956E+01    0.1884956E+01    0.1884956E+01    0.1884956E+01    0.1884956E+01    0.1884956E+01    0.2199115E+01    0.2199115E+01
  0.2199115E+01    0.2199115E+01    0.2199115E+01    0.2199115E+01    0.2199115E+01    0.2199115E+01    0.2199115E+01    0.2199115E+01    0.2199115E+01    0.2199115E+01
  0.2199115E+01    0.2199115E+01    0.2199115E+01    0.2199115E+01    0.2199115E+01    0.2199115E+01    0.2199115E+01    0.2199115E+01    0.2199115E+01    0.2513274E+01
  0.2513274E+01    0.2513274E+01    0.2513274E+01    0.2513274E+01    0.2513274E+01    0.2513274E+01    0.2513274E+01    0.2513274E+01    0.2513274E+01    0.2513274E+01
  0.2513274E+01    0.2513274E+01    0.2513274E+01    0.2513274E+01    0.2513274E+01    0.2513274E+01    0.2513274E+01    0.2513274E+01    0.2513274E+01    0.2513274E+01
  0.2827433E+01    0.2827433E+01    0.2827433E+01    0.2827433E+01    0.2827433E+01    0.2827433E+01    0.2827433E+01    0.2827433E+01    0.2827433E+01    0.2827433E+01
  0.2827433E+01    0.2827433E+01    0.2827433E+01    0.2827433E+01    0.2827433E+01    0.2827433E+01    0.2827433E+01    0.2827433E+01    0.2827433E+01    0.2827433E+01
  0.2827433E+01    0.3141593E+01    0.3141593E+01    0.3141593E+01    0.3141593E+01    0.3141593E+01    0.3141593E+01    0.3141593E+01    0.3141593E+01    0.3141593E+01
  0.3141593E+01    0.3141593E+01    0.3141593E+01    0.3141593E+01    0.3141593E+01    0.3141593E+01    0.3141593E+01    0.3141593E+01    0.3141593E+01    0.3141593E+01
  0.3141593E+01    0.3141593E+01    0.3455752E+01    0.3455752E+01    0.3455752E+01    0.3455752E+01    0.3455752E+01    0.3455752E+01    0.3455752E+01    0.3455752E+01
  0.3455752E+01    0.3455752E+01    0.3455752E+01    0.3455752E+01    0.3455752E+01    0.3455752E+01    0.3455752E+01    0.3455752E+01    0.3455752E+01    0.3455752E+01
  0.3455752E+01    0.3455752E+01    0.3455752E+01    0.3769911E+01    0.3769911E+01    0.3769911E+01    0.3769911E+01    0.3769911E+01    0.3769911E+01    0.3769911E+01
  0.3769911E+01    0.3769911E+01    0.3769911E+01    0.3769911E+01    0.3769911E+01    0.3769911E+01    0.3769911E+01    0.3769911E+01    0.3769911E+01    0.3769911E+01
  0.3769911E+01    0.3769911E+01    0.3769911E+01    0.3769911E+01    0.4084071E+01    0.4084071E+01    0.4084071E+01    0.4084071E+01    0.4084071E+01    0.4084071E+01
  0.4084071E+01    0.4084071E+01    0.4084071E+01    0.4084071E+01    0.4084071E+01    0.4084071E+01    0.4084071E+01    0.4084071E+01    0.4084071E+01    0.4084071E+01
  0.4084071E+01    0.4084071E+01    0.4084071E+01    0.4084071E+01    0.4084071E+01    0.4398230E+01    0.4398230E+01    0.4398230E+01    0.4398230E+01    0.4398230E+01
  0.4398230E+01    0.4398230E+01    0.4398230E+01    0.4398230E+01    0.4398230E+01    0.4398230E+01    0.4398230E+01    0.4398230E+01    0.4398230E+01    0.4398230E+01
  0.4398230E+01    0.4398230E+01    0.4398230E+01    0.4398230E+01    0.4398230E+01    0.4398230E+01    0.4712389E+01    0.4712389E+01    0.4712389E+01    0.4712389E+01
  0.4712389E+01    0.4712389E+01    0.4712389E+01    0.4712389E+01    0.4712389E+01    0.4712389E+01    0.4712389E+01    0.4712389E+01    0.4712389E+01    0.4712389E+01
  0.4712389E+01    0.4712389E+01    0.4712389E+01    0.4712389E+01    0.4712389E+01    0.4712389E+01    0.4712389E+01    0.5026548E+01    0.5026548E+01    0.5026548E+01
  0.5026548E+01    0.5026548E+01    0.5026548E+01    0.5026548E+01    0.5026548E+01    0.5026548E+01    0.5026548E+01    0.5026548E+01    0.5026548E+01    0.5026548E+01
  0.5026548E+01    0.5026548E+01    0.5026548E+01    0.5026548E+01    0.5026548E+01    0.5026548E+01    0.5026548E+01    0.5026548E+01    0.5340708E+01    0.5340708E+01
  0.5340708E+01    0.5340708E+01    0.5340708E+01    0.5340708E+01    0.5340708E+01    0.5340708E+01    0.5340708E+01    0.5340708E+01    0.5340708E+01    0.5340708E+01
  0.5340708E+01    0.5340708E+01    0.5340708E+01    0.5340708E+01    0.5340708E+01    0.5340708E+01    0.5340708E+01    0.5340708E+01    0.5340708E+01    0.5654867E+01
  0.5654867E+01    0.5654867E+01    0.5654867E+01    0.5654867E+01    0.5654867E+01    0.5654867E+01    0.5654867E+01    0.5654867E+01    0.5654867E+01    0.5654867E+01
  0.5654867E+01    0.5654867E+01    0.5654867E+01    0.5654867E+01    0.5654867E+01    0.5654867E+01    0.5654867E+01    0.5654867E+01    0.5654867E+01    0.5654867E+01
  0.5969026E+01    0.5969026E+01    0.5969026E+01    0.5969026E+01    0.5969026E+01    0.5969026E+01    0.5969026E+01    0.5969026E+01    0.5969026E+01    0.5969026E+01
  0.5969026E+01    0.5969026E+01    0.5969026E+01    0.5969026E+01    0.5969026E+01    0.5969026E+01    0.5969026E+01    0.5969026E+01    0.5969026E+01    0.5969026E+01
  0.5969026E+01    0.6283185E+01    0.6283185E+01    0.6283185E+01    0.6283185E+01    0.6283185E+01    0.6283185E+01    0.6283185E+01    0.6283185E+01    0.6283185E+01
  0.6283185E+01    0.6283185E+01    0.6283185E+01    0.6283185E+01    0.6283185E+01    0.6283185E+01    0.6283185E+01    0.6283185E+01    0.6283185E+01    0.6283185E+01
  0.6283185E+01    0.6283185E+01   -0.1278666E-01   -0.1153538E-01   -0.9155076E-02   -0.5878604E-02   -0.2026553E-02    0.2023722E-02    0.5875761E-02    0.9152408E-02
  0.1153219E-01    0.1278717E-01    0.1279078E-01    0.1153783E-01    0.9156315E-02    0.5879591E-02    0.2026849E-02   -0.2024133E-02   -0.5876022E-02   -0.9153414E-02
 -0.1153481E-01   -0.1278589E-01   -0.3710695E-01   -0.3347441E-01   -0.2656520E-01   -0.1705553E-01   -0.5876229E-02    0.5878294E-02    0.1705744E-01    0.2656678E-01
  0.3347527E-01    0.3710806E-01    0.3710854E-01    0.3347532E-01    0.2656570E-01    0.1705610E-01    0.5876729E-02   -0.5877722E-02   -0.1705646E-01   -0.2656595E-01
 -0.3347488E-01   -0.3710666E-01   -0.5779512E-01   -0.5213677E-01   -0.4137503E-01   -0.2656316E-01   -0.9150940E-02    0.9157116E-02    0.2656886E-01    0.4137981E-01
  0.5213995E-01    0.5779632E-01    0.5779522E-01    0.5213659E-01    0.4137480E-01    0.2656326E-01    0.9151441E-02   -0.9156100E-02   -0.2656721E-01   -0.4137798E-01
 -0.5213834E-01   -0.5779477E-01   -0.7282531E-01   -0.6569552E-01   -0.5213494E-01   -0.3347085E-01   -0.1153024E-01    0.1153910E-01    0.3347896E-01    0.5214156E-01
  0.6569987E-01    0.7282691E-01    0.7282515E-01    0.6569480E-01    0.5213414E-01    0.3347050E-01    0.1153045E-01   -0.1153816E-01   -0.3347728E-01   -0.5213971E-01
 -0.6569820E-01   -0.7282545E-01   -0.8072722E-01   -0.7282382E-01   -0.5779174E-01   -0.3710246E-01   -0.1278122E-01    0.1279119E-01    0.3711149E-01    0.5779889E-01
  0.7282827E-01    0.8072857E-01    0.8072654E-01    0.7282252E-01    0.5779040E-01    0.3710155E-01    0.1278093E-01   -0.1279071E-01   -0.3711037E-01   -0.5779765E-01
 -0.7282734E-01   -0.8072835E-01   -0.8072761E-01   -0.7282381E-01   -0.5779164E-01   -0.3710242E-01   -0.1278127E-01    0.1279097E-01    0.3711107E-01    0.5779832E-01
  0.7282759E-01    0.8072783E-01    0.8072585E-01    0.7282186E-01    0.5778972E-01    0.3710092E-01    0.1278037E-01   -0.1279123E-01   -0.3711075E-01   -0.5779787E-01
 -0.7282746E-01   -0.8072819E-01   -0.7282493E-01   -0.6569508E-01   -0.5213451E-01   -0.3347056E-01   -0.1153026E-01    0.1153861E-01    0.3347793E-01    0.5214002E-01
  0.6569798E-01    0.7282486E-01    0.7282307E-01    0.6569276E-01    0.5213213E-01    0.3346855E-01    0.1152869E-01   -0.1153966E-01   -0.3347848E-01   -0.5214052E-01
 -0.6569866E-01   -0.7282558E-01   -0.5779407E-01   -0.5213587E-01   -0.4137413E-01   -0.2656238E-01   -0.9150587E-02    0.9156841E-02    0.2656781E-01    0.4137793E-01
  0.5213745E-01    0.5779326E-01    0.5779174E-01    0.5213310E-01    0.4137134E-01    0.2655986E-01    0.9148412E-02   -0.9158589E-02   -0.2656925E-01   -0.4137939E-01
 -0.5213918E-01   -0.5779555E-01   -0.3710669E-01   -0.3347339E-01   -0.2656378E-01   -0.1705407E-01   -0.5875080E-02    0.5878846E-02    0.1705714E-01    0.2656560E-01
  0.3347339E-01    0.3710440E-01    0.3710331E-01    0.3347015E-01    0.2656063E-01    0.1705117E-01    0.5872480E-02   -0.5881206E-02   -0.1705929E-01   -0.2656775E-01
 -0.3347580E-01   -0.3710711E-01   -0.1278595E-01   -0.1153400E-01   -0.9153098E-02   -0.5876286E-02   -0.2024389E-02    0.2025463E-02    0.5876927E-02    0.9152941E-02
  0.1153274E-01    0.1278353E-01    0.1278287E-01    0.1153073E-01    0.9149849E-02    0.5873253E-02    0.2021488E-02   -0.2028229E-02   -0.5879524E-02   -0.9155618E-02
 -0.1153551E-01   -0.1278607E-01    0.1278595E-01    0.1153425E-01    0.9153526E-02    0.5876708E-02    0.2024463E-02   -0.2026112E-02   -0.5878508E-02   -0.9155678E-02
 -0.1153679E-01   -0.1278872E-01   -0.1278897E-01   -0.1153747E-01   -0.9156703E-02   -0.5879792E-02   -0.2027486E-02    0.2023174E-02    0.5875563E-02    0.9152605E-02
  0.1153358E-01    0.1278514E-01    0.3710533E-01    0.3347318E-01    0.2656404E-01    0.1705437E-01    0.5875136E-02   -0.5879395E-02   -0.1705859E-01   -0.2656808E-01
 -0.3347705E-01   -0.3710923E-01   -0.3710896E-01   -0.3347638E-01   -0.2656710E-01   -0.1705733E-01   -0.5878060E-02    0.5876367E-02    0.1705550E-01    0.2656494E-01
  0.3347379E-01    0.3710590E-01    0.5779379E-01    0.5213578E-01    0.4137423E-01    0.2656256E-01    0.9150588E-02   -0.9157327E-02   -0.2656895E-01   -0.4137992E-01
 -0.5214052E-01   -0.5779728E-01   -0.5779653E-01   -0.5213850E-01   -0.4137690E-01   -0.2656517E-01   -0.9153368E-02    0.9154357E-02    0.2656592E-01    0.4137676E-01
  0.5213743E-01    0.5779477E-01    0.7282446E-01    0.6569467E-01    0.5213424E-01    0.3347042E-01    0.1153007E-01   -0.1153906E-01   -0.3347878E-01   -0.5214147E-01
 -0.6570023E-01   -0.7282782E-01   -0.7282670E-01   -0.6569692E-01   -0.5213641E-01   -0.3347271E-01   -0.1153261E-01    0.1153630E-01    0.3347574E-01    0.5213827E-01
  0.6569711E-01    0.7282463E-01    0.8072545E-01    0.7282253E-01    0.5779076E-01    0.3710171E-01    0.1278069E-01   -0.1279155E-01   -0.3711180E-01   -0.5779926E-01
 -0.7282893E-01   -0.8072969E-01   -0.8072808E-01   -0.7282441E-01   -0.5779249E-01   -0.3710356E-01   -0.1278284E-01    0.1278892E-01    0.3710883E-01    0.5779626E-01
  0.7282597E-01    0.8072693E-01    0.8072598E-01    0.7282238E-01    0.5779027E-01    0.3710109E-01    0.1278003E-01   -0.1279222E-01   -0.3711229E-01   -0.5779952E-01
 -0.7282893E-01   -0.8072923E-01   -0.8072723E-01   -0.7282339E-01   -0.5779127E-01   -0.3710231E-01   -0.1278185E-01    0.1278979E-01    0.3710956E-01    0.5779662E-01
  0.7282640E-01    0.8072786E-01    0.7282412E-01    0.6569363E-01    0.5213270E-01    0.3346858E-01    0.1152812E-01   -0.1154091E-01   -0.3348026E-01   -0.5214229E-01
 -0.6570008E-01   -0.7282653E-01   -0.7282435E-01   -0.6569379E-01   -0.5213293E-01   -0.3346931E-01   -0.1152956E-01    0.1153880E-01    0.3347753E-01    0.5213938E-01
  0.6569757E-01    0.7282437E-01    0.5779204E-01    0.5213384E-01    0.4137189E-01    0.2655981E-01    0.9147674E-02   -0.9160021E-02   -0.2657116E-01   -0.4138117E-01
 -0.5214024E-01   -0.5779527E-01   -0.5779281E-01   -0.5213350E-01   -0.4137155E-01   -0.2656000E-01   -0.9148605E-02    0.9158100E-02    0.2656856E-01    0.4137855E-01
  0.5213782E-01    0.5779346E-01    0.3710499E-01    0.3347153E-01    0.2656150E-01    0.1705129E-01    0.5871878E-02   -0.5882461E-02   -0.1706108E-01   -0.2656949E-01
 -0.3347678E-01   -0.3710655E-01   -0.3710394E-01   -0.3347003E-01   -0.2656038E-01   -0.1705087E-01   -0.5872370E-02    0.5880925E-02    0.1705887E-01    0.2656712E-01
  0.3347495E-01    0.3710664E-01    0.1278584E-01    0.1153271E-01    0.9151120E-02    0.5873768E-02    0.2021384E-02   -0.2028855E-02   -0.5880752E-02   -0.9157038E-02
 -0.1153655E-01   -0.1278564E-01   -0.1278296E-01   -0.1153010E-01   -0.9149485E-02   -0.5873183E-02   -0.2021327E-02    0.2027937E-02    0.5878818E-02    0.9155123E-02
  0.1153470E-01    0.1278476E-01    0.1278524E-01    0.3710410E-01    0.5778968E-01    0.7281724E-01    0.8071510E-01    0.8070948E-01    0.7280149E-01    0.5776437E-01
  0.3707059E-01    0.1275588E-01   -0.1282239E-01   -0.3713936E-01   -0.5782068E-01   -0.7284530E-01   -0.8074297E-01   -0.8073707E-01   -0.7283056E-01   -0.5779849E-01
 -0.3710757E-01   -0.1278553E-01    0.1153370E-01    0.3347186E-01    0.5213238E-01    0.6568844E-01    0.7281259E-01    0.7280715E-01    0.6567266E-01    0.5210724E-01
  0.3343943E-01    0.1149937E-01   -0.1156992E-01   -0.3350586E-01   -0.5216299E-01   -0.6571653E-01   -0.7283986E-01   -0.7283467E-01   -0.6570213E-01   -0.5214036E-01
 -0.3347528E-01   -0.1153469E-01    0.9152317E-02    0.2656231E-01    0.4137091E-01    0.5212831E-01    0.5778118E-01    0.5777593E-01    0.5211295E-01    0.4134664E-01
  0.2653134E-01    0.9118317E-02   -0.9188198E-02   -0.2659587E-01   -0.4140157E-01   -0.5215671E-01   -0.5780865E-01   -0.5780390E-01   -0.5214290E-01   -0.4137953E-01
 -0.2656684E-01   -0.9154731E-02    0.5874539E-02    0.1705200E-01    0.2655887E-01    0.3346438E-01    0.3709233E-01    0.3708735E-01    0.3344992E-01    0.2653618E-01
  0.1702326E-01    0.5843017E-02   -0.5909926E-02   -0.1708530E-01   -0.2658970E-01   -0.3349325E-01   -0.3712042E-01   -0.3711600E-01   -0.3348034E-01   -0.2656912E-01
 -0.1705843E-01   -0.5879154E-02    0.2021447E-02    0.5871952E-02    0.9146265E-02    0.1152367E-01    0.1277123E-01    0.1276669E-01    0.1151047E-01    0.9125651E-02
  0.5846023E-02    0.1993009E-02   -0.2056055E-02   -0.5904924E-02   -0.9177241E-02   -0.1155311E-01   -0.1280007E-01   -0.1279604E-01   -0.1154138E-01   -0.9158599E-02
 -0.5880679E-02   -0.2028474E-02   -0.2030272E-02   -0.5883602E-02   -0.9162489E-02   -0.1154615E-01   -0.1280138E-01   -0.1280541E-01   -0.1155786E-01   -0.9180694E-02
 -0.5906367E-02   -0.2055152E-02    0.1996136E-02    0.5850810E-02    0.9131245E-02    0.1151610E-01    0.1277178E-01    0.1277532E-01    0.1152651E-01    0.9147798E-02
  0.5872174E-02    0.2020508E-02   -0.5883714E-02   -0.1706376E-01   -0.2657509E-01   -0.3348672E-01   -0.3712220E-01   -0.3712574E-01   -0.3349693E-01   -0.2659090E-01
 -0.1708349E-01   -0.5905134E-02    0.5850002E-02    0.1703114E-01    0.2654367E-01    0.3345621E-01    0.3709195E-01    0.3709507E-01    0.3346529E-01    0.2655802E-01
  0.1704963E-01    0.5870948E-02   -0.9161389E-02   -0.2657409E-01   -0.4138705E-01   -0.5215038E-01   -0.5781061E-01   -0.5781366E-01   -0.5215923E-01   -0.4140076E-01
 -0.2659118E-01   -0.9180054E-02    0.9128290E-02    0.2654172E-01    0.4135555E-01    0.5211948E-01    0.5777986E-01    0.5778258E-01    0.5212735E-01    0.4136796E-01
  0.2655771E-01    0.9146289E-02   -0.1154315E-01   -0.3348393E-01   -0.5214864E-01   -0.6571034E-01   -0.7284151E-01   -0.7284417E-01   -0.6571804E-01   -0.5216056E-01
 -0.3349877E-01   -0.1155935E-01    0.1151019E-01    0.3345158E-01    0.5211691E-01    0.6567905E-01    0.7281037E-01    0.7281271E-01    0.6568598E-01    0.5212788E-01
  0.3346559E-01    0.1152613E-01   -0.1279554E-01   -0.3711674E-01   -0.5780636E-01   -0.7283913E-01   -0.8074356E-01   -0.8074596E-01   -0.7284601E-01   -0.5781699E-01
 -0.3713001E-01   -0.1280993E-01    0.1276263E-01    0.3708435E-01    0.5777450E-01    0.7280765E-01    0.8071213E-01    0.8071430E-01    0.7281394E-01    0.5778436E-01
  0.3709698E-01    0.1277682E-01   -0.1279559E-01   -0.3711686E-01   -0.5780638E-01   -0.7283899E-01   -0.8074329E-01   -0.8074550E-01   -0.7284542E-01   -0.5781637E-01
 -0.3712935E-01   -0.1280934E-01    0.1276301E-01    0.3708457E-01    0.5777451E-01    0.7280738E-01    0.8071175E-01    0.8071384E-01    0.7281335E-01    0.5778384E-01
  0.3709654E-01    0.1277632E-01   -0.1154414E-01   -0.3348460E-01   -0.5214889E-01   -0.6571011E-01   -0.7284079E-01   -0.7284297E-01   -0.6571646E-01   -0.5215875E-01
 -0.3349693E-01   -0.1155775E-01    0.1151134E-01    0.3345214E-01    0.5211680E-01    0.6567835E-01    0.7280921E-01    0.7281124E-01    0.6568439E-01    0.5212634E-01
  0.3346418E-01    0.1152495E-01   -0.9163271E-02   -0.2657527E-01   -0.4138754E-01   -0.5215012E-01   -0.5780952E-01   -0.5781184E-01   -0.5215678E-01   -0.4139788E-01
 -0.2658829E-01   -0.9177504E-02    0.9130188E-02    0.2654261E-01    0.4135539E-01    0.5211842E-01    0.5777799E-01    0.5778022E-01    0.5212489E-01    0.4136546E-01
  0.2655542E-01    0.9144469E-02   -0.5885524E-02   -0.1706509E-01   -0.2657565E-01   -0.3348636E-01   -0.3712087E-01   -0.3712340E-01   -0.3349374E-01   -0.2658719E-01
 -0.1707963E-01   -0.5901655E-02    0.5852517E-02    0.1703243E-01    0.2654360E-01    0.3345480E-01    0.3708960E-01    0.3709213E-01    0.3346200E-01    0.2655481E-01
  0.1704674E-01    0.5868311E-02   -0.2032742E-02   -0.5885362E-02   -0.9163339E-02   -0.1154596E-01   -0.1280006E-01   -0.1280294E-01   -0.1155439E-01   -0.9176500E-02
 -0.5901922E-02   -0.2051134E-02    0.1999132E-02    0.5852360E-02    0.9131136E-02    0.1151453E-01    0.1276912E-01    0.1277188E-01    0.1152278E-01    0.9144174E-02
  0.5868794E-02    0.2017638E-02    0.2018515E-02    0.5869946E-02    0.9145221E-02    0.1152369E-01    0.1277243E-01    0.1276904E-01    0.1151392E-01    0.9129966E-02
  0.5850646E-02    0.1997303E-02   -0.2052771E-02   -0.5903288E-02   -0.9177347E-02   -0.1155469E-01   -0.1280291E-01   -0.1279963E-01   -0.1154517E-01   -0.9162441E-02
 -0.5884261E-02   -0.2031462E-02    0.5872395E-02    0.1705036E-01    0.2655800E-01    0.3346444E-01    0.3709336E-01    0.3708948E-01    0.3345309E-01    0.2654015E-01
  0.1702770E-01    0.5847199E-02   -0.5906815E-02   -0.1708370E-01   -0.2658973E-01   -0.3349487E-01   -0.3712308E-01   -0.3711926E-01   -0.3348403E-01   -0.2657271E-01
 -0.1706170E-01   -0.5882281E-02    0.9150288E-02    0.2656085E-01    0.4137015E-01    0.5212826E-01    0.5778189E-01    0.5777752E-01    0.5211535E-01    0.4134975E-01
  0.2653489E-01    0.9121319E-02   -0.9185760E-02   -0.2659457E-01   -0.4140177E-01   -0.5215817E-01   -0.5781080E-01   -0.5780667E-01   -0.5214600E-01   -0.4138238E-01
 -0.2656954E-01   -0.9157126E-02    0.1153195E-01    0.3347092E-01    0.5213208E-01    0.6568862E-01    0.7281316E-01    0.7280829E-01    0.6567431E-01    0.5210931E-01
  0.3344166E-01    0.1149932E-01   -0.1156866E-01   -0.3350496E-01   -0.5216310E-01   -0.6571769E-01   -0.7284126E-01   -0.7283641E-01   -0.6570441E-01   -0.5214229E-01
 -0.3347700E-01   -0.1153663E-01    0.1278532E-01    0.3710443E-01    0.5779041E-01    0.7281813E-01    0.8071565E-01    0.8071051E-01    0.7280283E-01    0.5776563E-01
  0.3707221E-01    0.1274785E-01   -0.1282245E-01   -0.3713802E-01   -0.5782006E-01   -0.7284655E-01   -0.8074293E-01   -0.8073701E-01   -0.7283264E-01   -0.5779888E-01
 -0.3710746E-01   -0.1278794E-01    0.2851589E-03    0.5499989E-03    0.9682800E-03    0.1426604E-02    0.1705338E-02    0.1659511E-02    0.1354471E-02    0.8687954E-03
  0.3362086E-03    0.9381478E-06    0.7155638E-04    0.2923632E-03    0.7985886E-03    0.1339436E-02    0.1530048E-02    0.1583939E-02    0.1380595E-02    0.7850877E-03
  0.4108489E-03    0.2438177E-03    0.5482883E-03    0.8233557E-03    0.1262262E-02    0.1720716E-02    0.1992001E-02    0.1962163E-02    0.1655219E-02    0.1160588E-02
  0.6457026E-03    0.3418145E-03    0.3766177E-03    0.6168184E-03    0.1100340E-02    0.1626459E-02    0.1857480E-02    0.1882639E-02    0.1654893E-02    0.1116774E-02
  0.6966435E-03    0.4826430E-03    0.9556917E-03    0.1252502E-02    0.1710911E-02    0.2164338E-02    0.2445391E-02    0.2429310E-02    0.2112815E-02    0.1632380E-02
  0.1131323E-02    0.8169309E-03    0.8522024E-03    0.1114079E-02    0.1565932E-02    0.2092878E-02    0.2353231E-02    0.2338097E-02    0.2116215E-02    0.1609228E-02
  0.1127005E-02    0.9117867E-03    0.1418831E-02    0.1709012E-02    0.2159999E-02    0.2618318E-02    0.2909286E-02    0.2885778E-02    0.2575864E-02    0.2111671E-02
  0.1596074E-02    0.1286963E-02    0.1338260E-02    0.1584783E-02    0.2035067E-02    0.2576239E-02    0.2816127E-02    0.2803930E-02    0.2597408E-02    0.2061080E-02