 TITLE = "NAVIER-STOKES OUTPUT"
 VARIABLES = "X", "Y", "U", "V", "P", "Pex", "Vor"
 ZONE I =   21, J =   21, DATAPACKING = BLOCK, VARLOCATION=(3=CELLCENTERED, 4=CELLCENTERED,5=CELLCENTERED,6=CELLCENTERED, 7=CELLCENTERED)
  0.0000000E+00    0.3141593E+00    0.6283185E+00    0.9424778E+00    0.1256637E+01    0.1570796E+01    0.1884956E+01    0.2199115E+01    0.2513274E+01    0.2827433E+01
  0.3141593E+01    0.3455752E+01    0.3769911E+01    0.4084071E+01    0.4398230E+01    0.4712389E+01    0.5026548E+01    0.5340708E+01    0.5654867E+01    0.5969026E+01
  0.6283185E+01    0.0000000E+00    0.3141593E+00    0.6283185E+00    0.9424778E+00    0.1256637E+01    0.1570796E+01    0.1884956E+01    0.2199115E+01    0.2513274E+01
  0.2827433E+01    0.3141593E+01    0.3455752E+01    0.3769911E+01    0.4084071E+01    0.4398230E+01    0.4712389E+01    0.5026548E+01    0.5340708E+01    0.5654867E+01
  0.5969026E+01    0.6283185E+01    0.0000000E+00    0.3141593E+00    0.6283185E+00    0.9424778E+00    0.1256637E+01    0.1570796E+01    0.1884956E+01    0.2199115E+01
  0.2513274E+01    0.2827433E+01    0.3141593E+01    0.3455752E+01    0.3769911E+01    0.4084071E+01    0.4398230E+01    0.4712389E+01    0.5026548E+01    0.5340708E+01
  0.5654867E+01    0.5969026E+01    0.6283185E+01    0.0000000E+00    0.3141593E+00    0.6283185E+00    0.9424778E+00    0.1256637E+01    0.1570796E+01    0.1884956E+01
  0.2199115E+01    0.2513274E+01    0.2827433E+01    0.3141593E+01    0.3455752E+01    0.3769911E+01    0.4084071E+01    0.4398230E+01    0.4712389E+01    0.5026548E+01
  0.5340708E+01    0.5654867E+01    0.5969026E+01    0.6283185E+01    0.0000000E+00    0.3141593E+00    0.6283185E+00    0.9424778E+00    0.1256637E+01    0.1570796E+01
  0.1884956E+01    0.2199115E+01    0.2513274E+01    0.2827433E+01    0.3141593E+01    0.3455752E+01    0.3769911E+01    0.4084071E+01    0.4398230E+01    0.4712389E+01
  0.5026548E+01    0.5340708E+01    0.5654867E+01    0.5969026E+01    0.6283185E+01    0.0000000E+00    0.3141593E+00    0.6283185E+00    0.9424778E+00    0.1256637E+01
  0.1570796E+01    0.1884956E+01    0.2199115E+01    0.2513274E+01    0.2827433E+01    0.3141593E+01    0.3455752E+01    0.3769911E+01    0.4084071E+01    0.4398230E+01
  0.4712389E+01    0.5026548E+01    0.5340708E+01    0.5654867E+01    0.5969026E+01    0.6283185E+01    0.0000000E+00    0.3141593E+00    0.6283185E+00    0.9424778E+00
  0.1256637E+01    0.1570796E+01    0.1884956E+01    0.2199115E+01    0.2513274E+01    0.2827433E+01    0.3141593E+01    0.3455752E+01    0.3769911E+01    0.4084071E+01
  0.4398230E+01    0.4712389E+01    0.5026548E+01    0.5340708E+01    0.5654867E+01    0.5969026E+01    0.6283185E+01    0.0000000E+00    0.3141593E+00    0.6283185E+00
  0.9424778E+00    0.1256637E+01    0.1570796E+01    0.1884956E+01    0.2199115E+01    0.2513274E+01    0.2827433E+01    0.3141593E+01    0.3455752E+01    0.3769911E+01
  0.4084071E+01    0.4398230E+01    0.4712389E+01    0.5026548E+01    0.5340708E+01    0.5654867E+01    0.5969026E+01    0.6283185E+01    0.0000000E+00    0.3141593E+00
  0.6283185E+00    0.9424778E+00    0.1256637E+01    0.1570796E+01    0.1884956E+01    0.2199115E+01    0.2513274E+01    0.2827433E+01    0.3141593E+01    0.3455752E+01
  0.3769911E+01    0.4084071E+01    0.4398230E+01    0.4712389E+01    0.5026548E+01    0.5340708E+01    0.5654867E+01    0.5969026E+01    0.6283185E+01    0.0000000E+00
  0.3141593E+00    0.6283185E+00    0.9424778E+00    0.1256637E+01    0.1570796E+01    0.1884956E+01    0.2199115E+01    0.2513274E+01    0.2827433E+01    0.3141593E+01
  0.3455752E+01    0.3769911E+01    0.4084071E+01    0.4398230E+01    0.4712389E+01    0.5026548E+01    0.5340708E+01    0.5654867E+01    0.5969026E+01    0.6283185E+01
  0.0000000E+00    0.3141593E+00    0.6283185E+00    0.9424778E+00    0.1256637E+01    0.1570796E+01    0.1884956E+01    0.2199115E+01    0.2513274E+01    0.2827433E+01
  0.3141593E+01    0.3455752E+01    0.3769911E+01    0.4084071E+01    0.4398230E+01    0.4712389E+01    0.5026548E+01    0.5340708E+01    0.5654867E+01    0.5969026E+01
  0.6283185E+01    0.0000000E+00    0.3141593E+00    0.6283185E+00    0.9424778E+00    0.1256637E+01    0.1570796E+01    0.1884956E+01    0.2199115E+01    0.2513274E+01
  0.2827433E+01    0.3141593E+01    0.3455752E+01    0.3769911E+01    0.4084071E+01    0.4398230E+01    0.4712389E+01    0.5026548E+01    0.5340708E+01    0.5654867E+01
  0.5969026E+01    0.6283185E+01    0.0000000E+00    0.3141593E+00    0.6283185E+00    0.9424778E+00    0.1256637E+01    0.1570796E+01    0.1884956E+01    0.2199115E+01
  0.2513274E+01    0.2827433E+01    0.3141593E+01    0.3455752E+01    0.3769911E+01    0.4084071E+01    0.4398230E+01    0.4712389E+01    0.5026548E+01    0.5340708E+01
  0.5654867E+01    0.5969026E+01    0.6283185E+01    0.0000000E+00    0.3141593E+00    0.6283185E+00    0.9424778E+00    0.1256637E+01    0.1570796E+01    0.1884956E+01
  0.2199115E+01    0.2513274E+01    0.2827433E+01    0.3141593E+01    0.3455752E+01    0.3769911E+01    0.4084071E+01    0.4398230E+01    0.4712389E+01    0.5026548E+01
  0.5340708E+01    0.5654867E+01    0.5969026E+01    0.6283185E+01    0.0000000E+00    0.3141593E+00    0.6283185E+00    0.9424778E+00    0.1256637E+01    0.1570796E+01
  0.1884956E+01    0.2199115E+01    0.2513274E+01    0.2827433E+01    0.3141593E+01    0.3455752E+01    0.3769911E+01    0.4084071E+01    0.4398230E+01    0.4712389E+01
  0.5026548E+01    0.5340708E+01    0.5654867E+01    0.5969026E+01    0.6283185E+01    0.0000000E+00    0.3141593E+00    0.6283185E+00    0.9424778E+00    0.1256637E+01
  0.1570796E+01    0.1884956E+01    0.2199115E+01    0.2513274E+01    0.2827433E+01    0.3141593E+01    0.3455752E+01    0.3769911E+01    0.4084071E+01    0.4398230E+01
  0.4712389E+01    0.5026548E+01    0.5340708E+01    0.5654867E+01    0.5969026E+01    0.6283185E+01    0.0000000E+00    0.3141593E+00    0.6283185E+00    0.9424778E+00
  0.1256637E+01    0.1570796E+01    0.1884956E+01    0.2199115E+01    0.2513274E+01    0.2827433E+01    0.3141593E+01    0.3455752E+01    0.3769911E+01    0.4084071E+01
  0.4398230E+01    0.4712389E+01    0.5026548E+01    0.5340708E+01    0.5654867E+01    0.5969026E+01    0.6283185E+01    0.0000000E+00    0.3141593E+00    0.6283185E+00
  0.9424778E+00    0.1256637E+01    0.1570796E+01    0.1884956E+01    0.2199115E+01    0.2513274E+01    0.2827433E+01    0.3141593E+01    0.3455752E+01    0.3769911E+01
  0.4084071E+01    0.4398230E+01    0.4712389E+01    0.5026548E+01    0.5340708E+01    0.5654867E+01    0.5969026E+01    0.6283185E+01    0.0000000E+00    0.3141593E+00
  0.6283185E+00    0.9424778E+00    0.1256637E+01    0.1570796E+01    0.1884956E+01    0.2199115E+01    0.2513274E+01    0.2827433E+01    0.3141593E+01    0.3455752E+01
  0.3769911E+01    0.4084071E+01    0.4398230E+01    0.4712389E+01    0.5026548E+01    0.5340708E+01    0.5654867E+01    0.5969026E+01    0.6283185E+01    0.0000000E+00
  0.3141593E+00    0.6283185E+00    0.9424778E+00    0.1256637E+01    0.1570796E+01    0.1884956E+01    0.2199115E+01    0.2513274E+01    0.2827433E+01    0.3141593E+01
  0.3455752E+01    0.3769911E+01    0.4084071E+01    0.4398230E+01    0.4712389E+01    0.5026548E+01    0.5340708E+01    0.5654867E+01    0.5969026E+01    0.6283185E+01
  0.0000000E+00    0.3141593E+00    0.6283185E+00    0.9424778E+00    0.1256637E+01    0.1570796E+01    0.1884956E+01    0.2199115E+01    0.2513274E+01    0.2827433E+01
  0.3141593E+01    0.3455752E+01    0.3769911E+01    0.4084071E+01    0.4398230E+01    0.4712389E+01    0.5026548E+01    0.5340708E+01    0.5654867E+01    0.5969026E+01
  0.6283185E+01    0.0000000E+00    0.0000000E+00    0.0000000E+00    0.0000000E+00    0.0000000E+00    0.0000000E+00    0.0000000E+00    0.0000000E+00    0.0000000E+00
  0.0000000E+00    0.0000000E+00    0.0000000E+00    0.0000000E+00    0.0000000E+00    0.0000000E+00    0.0000000E+00    0.0000000E+00    0.0000000E+00    0.0000000E+00
  0.0000000E+00    0.0000000E+00    0.3141593E+00    0.3141593E+00    0.3141593E+00    0.3141593E+00    0.3141593E+00    0.3141593E+00    0.3141593E+00    0.3141593E+00
  0.3141593E+00    0.3141593E+00    0.3141593E+00    0.3141593E+00    0.3141593E+00    0.3141593E+00    0.3141593E+00    0.3141593E+00    0.3141593E+00    0.3141593E+00
  0.3141593E+00    0.3141593E+00    0.3141593E+00    0.6283185E+00    0.6283185E+00    0.6283185E+00    0.6283185E+00    0.6283185E+00    0.6283185E+00    0.6283185E+00
  0.6283185E+00    0.6283185E+00    0.6283185E+00    0.6283185E+00    0.6283185E+00    0.6283185E+00    0.6283185E+00    0.6283185E+00    0.6283185E+00    0.6283185E+00
  0.6283185E+00    0.6283185E+00    0.6283185E+00    0.6283185E+00    0.9424778E+00    0.9424778E+00    0.9424778E+00    0.9424778E+00    0.9424778E+00    0.9424778E+00
  0.9424778E+00    0.9424778E+00    0.9424778E+00    0.9424778E+00    0.9424778E+00    0.9424778E+00    0.9424778E+00    0.9424778E+00    0.9424778E+00    0.9424778E+00
  0.9424778E+00    0.9424778E+00    0.9424778E+00    0.9424778E+00    0.9424778E+00    0.1256637E+01    0.1256637E+01    0.1256637E+01    0.1256637E+01    0.1256637E+01
  0.1256637E+01    0.1256637E+01    0.1256637E+01    0.1256637E+01    0.1256637E+01    0.1256637E+01    0.1256637E+01    0.1256637E+01    0.1256637E+01    0.1256637E+01
  0.1256637E+01    0.1256637E+01    0.1256637E+01    0.1256637E+01    0.1256637E+01    0.1256637E+01    0.1570796E+01    0.1570796E+01    0.1570796E+01    0.1570796E+01
  0.1570796E+01    0.1570796E+01    0.1570796E+01    0.1570796E+01    0.1570796E+01    0.1570796E+01    0.1570796E+01    0.1570796E+01    0.1570796E+01    0.1570796E+01
  0.1570796E+01    0.1570796E+01    0.1570796E+01    0.1570796E+01    0.1570796E+01    0.1570796E+01    0.1570796E+01    0.1884956E+01    0.1884956E+01    0.1884956E+01
  0.1884956E+01    0.1884956E+01    0.1884956E+01    0.1884956E+01    0.1884956E+01    0.1884956E+01    0.1884956E+01    0.1884956E+01    0.1884956E+01    0.1884956E+01
  0.1884956E+01    0.1884956E+01    0.1884956E+01    0.1884956E+01    0.1884956E+01    0.1884956E+01    0.1884956E+01    0.1884956E+01    0.2199115E+01    0.2199115E+01
  0.2199115E+01    0.2199115E+01    0.2199115E+01    0.2199115E+01    0.2199115E+01    0.2199115E+01    0.2199115E+01    0.2199115E+01    0.2199115E+01    0.2199115E+01
  0.2199115E+01    0.2199115E+01    0.2199115E+01    0.2199115E+01    0.2199115E+01    0.2199115E+01    0.2199115E+01    0.2199115E+01    0.2199115E+01    0.2513274E+01
  0.2513274E+01    0.2513274E+01    0.2513274E+01    0.2513274E+01    0.2513274E+01    0.2513274E+01    0.2513274E+01    0.2513274E+01    0.2513274E+01    0.2513274E+01
  0.2513274E+01    0.2513274E+01    0.2513274E+01    0.2513274E+01    0.2513274E+01    0.2513274E+01    0.2513274E+01    0.2513274E+01    0.2513274E+01    0.2513274E+01
  0.2827433E+01    0.2827433E+01    0.2827433E+01    0.2827433E+01    0.2827433E+01    0.2827433E+01    0.2827433E+01    0.2827433E+01    0.2827433E+01    0.2827433E+01
  0.2827433E+01    0.2827433E+01    0.2827433E+01    0.2827433E+01    0.2827433E+01    0.2827433E+01    0.2827433E+01    0.2827433E+01    0.2827433E+01    0.2827433E+01
  0.2827433E+01    0.3141593E+01    0.3141593E+01    0.3141593E+01    0.3141593E+01    0.3141593E+01    0.3141593E+01    0.3141593E+01    0.3141593E+01    0.3141593E+01
  0.3141593E+01    0.3141593E+01    0.3141593E+01    0.3141593E+01    0.3141593E+01    0.3141593E+01    0.3141593E+01    0.3141593E+01    0.3141593E+01    0.3141593E+01
  0.3141593E+01    0.3141593E+01    0.3455752E+01    0.3455752E+01    0.3455752E+01    0.3455752E+01    0.3455752E+01    0.3455752E+01    0.3455752E+01    0.3455752E+01
  0.3455752E+01    0.3455752E+01    0.3455752E+01    0.3455752E+01    0.3455752E+01    0.3455752E+01    0.3455752E+01    0.3455752E+01    0.3455752E+01    0.3455752E+01
  0.3455752E+01    0.3455752E+01    0.3455752E+01    0.3769911E+01    0.3769911E+01    0.3769911E+01    0.3769911E+01    0.3769911E+01    0.3769911E+01    0.3769911E+01
  0.3769911E+01    0.3769911E+01    0.3769911E+01    0.3769911E+01    0.3769911E+01    0.3769911E+01    0.3769911E+01    0.3769911E+01    0.3769911E+01    0.3769911E+01
  0.3769911E+01    0.3769911E+01    0.3769911E+01    0.3769911E+01    0.4084071E+01    0.4084071E+01    0.4084071E+01    0.4084071E+01    0.4084071E+01    0.4084071E+01
  0.4084071E+01    0.4084071E+01    0.4084071E+01    0.4084071E+01    0.4084071E+01    0.4084071E+01    0.4084071E+01    0.4084071E+01    0.4084071E+01    0.4084071E+01
  0.4084071E+01    0.4084071E+01    0.4084071E+01    0.4084071E+01    0.4084071E+01    0.4398230E+01    0.4398230E+01    0.4398230E+01    0.4398230E+01    0.4398230E+01
  0.4398230E+01    0.4398230E+01    0.4398230E+01    0.4398230E+01    0.4398230E+01    0.4398230E+01    0.4398230E+01    0.4398230E+01    0.4398230E+01    0.4398230E+01
  0.4398230E+01    0.4398230E+01    0.4398230E+01    0.4398230E+01    0.4398230E+01    0.4398230E+01    0.4712389E+01    0.4712389E+01    0.4712389E+01    0.4712389E+01
  0.4712389E+01    0.4712389E+01    0.4712389E+01    0.4712389E+01    0.4712389E+01    0.4712389E+01    0.4712389E+01    0.4712389E+01    0.4712389E+01    0.4712389E+01
  0.4712389E+01    0.4712389E+01    0.4712389E+01    0.4712389E+01    0.4712389E+01    0.4712389E+01    0.4712389E+01    0.5026548E+01    0.5026548E+01    0.5026548E+01
  0.5026548E+01    0.5026548E+01    0.5026548E+01    0.5026548E+01    0.5026548E+01    0.5026548E+01    0.5026548E+01    0.5026548E+01    0.5026548E+01    0.5026548E+01
  0.5026548E+01    0.5026548E+01    0.5026548E+01    0.5026548E+01    0.5026548E+01    0.5026548E+01    0.5026548E+01    0.5026548E+01    0.5340708E+01    0.5340708E+01
  0.5340708E+01    0.5340708E+01    0.5340708E+01    0.5340708E+01    0.5340708E+01    0.5340708E+01    0.5340708E+01    0.5340708E+01    0.5340708E+01    0.5340708E+01
  0.5340708E+01    0.5340708E+01    0.5340708E+01    0.5340708E+01    0.5340708E+01    0.5340708E+01    0.5340708E+01    0.5340708E+01    0.5340708E+01    0.5654867E+01
  0.5654867E+01    0.5654867E+01    0.5654867E+01    0.5654867E+01    0.5654867E+01    0.5654867E+01    0.5654867E+01    0.5654867E+01    0.5654867E+01    0.5654867E+01
  0.5654867E+01    0.5654867E+01    0.5654867E+01    0.5654867E+01    0.5654867E+01    0.5654867E+01    0.5654867E+01    0.5654867E+01    0.5654867E+01    0.5654867E+01
  0.5969026E+01    0.5969026E+01    0.5969026E+01    0.5969026E+01    0.5969026E+01    0.5969026E+01    0.5969026E+01    0.5969026E+01    0.5969026E+01    0.5969026E+01
  0.5969026E+01    0.5969026E+01    0.5969026E+01    0.5969026E+01    0.5969026E+01    0.5969026E+01    0.5969026E+01    0.5969026E+01    0.5969026E+01    0.5969026E+01
  0.5969026E+01    0.6283185E+01    0.6283185E+01    0.6283185E+01    0.6283185E+01    0.6283185E+01    0.6283185E+01    0.6283185E+01    0.6283185E+01    0.6283185E+01
  0.6283185E+01    0.6283185E+01    0.6283185E+01    0.6283185E+01    0.6283185E+01    0.6283185E+01    0.6283185E+01    0.6283185E+01    0.6283185E+01    0.6283185E+01
  0.6283185E+01    0.6283185E+01   -0.1157913E-01   -0.1044588E-01   -0.8290106E-02   -0.5322705E-02   -0.1834150E-02    0.1834020E-02    0.5322940E-02    0.8291481E-02
  0.1044976E-01    0.1158029E-01    0.1157728E-01    0.1044577E-01    0.8290615E-02    0.5323436E-02    0.1834683E-02   -0.1833381E-02   -0.5321934E-02   -0.8289995E-02
 -0.1044619E-01   -0.1157982E-01   -0.3360294E-01   -0.3031326E-01   -0.2405627E-01   -0.1544434E-01   -0.5320432E-02    0.5324411E-02    0.1544825E-01    0.2406010E-01
  0.3031682E-01    0.3360464E-01    0.3360308E-01    0.3031343E-01    0.2405652E-01    0.1544492E-01    0.5321207E-02   -0.5323325E-02   -0.1544663E-01   -0.2405828E-01
 -0.3031486E-01   -0.3360377E-01   -0.5233735E-01   -0.4721339E-01   -0.3746773E-01   -0.2405431E-01   -0.8286087E-02    0.8293404E-02    0.2406117E-01    0.3747365E-01
  0.4721774E-01    0.5233941E-01    0.5233782E-01    0.4721340E-01    0.3746765E-01    0.2405458E-01    0.8286823E-02   -0.8292155E-02   -0.2405934E-01   -0.3747167E-01
 -0.4721606E-01   -0.5233840E-01   -0.6594849E-01   -0.5949192E-01   -0.4721169E-01   -0.3030985E-01   -0.1044085E-01    0.1045031E-01    0.3031854E-01    0.4721893E-01
  0.5949695E-01    0.6595073E-01    0.6594889E-01    0.5949169E-01    0.4721123E-01    0.3030975E-01    0.1044130E-01   -0.1044929E-01   -0.3031694E-01   -0.4721720E-01
 -0.5949565E-01   -0.6595011E-01   -0.7310461E-01   -0.6594724E-01   -0.5233443E-01   -0.3359862E-01   -0.1157379E-01    0.1158404E-01    0.3360792E-01    0.5234195E-01
  0.6595212E-01    0.7310625E-01    0.7310429E-01    0.6594644E-01    0.5233349E-01    0.3359804E-01    0.1157371E-01   -0.1158355E-01   -0.3360692E-01   -0.5234091E-01
 -0.6595154E-01   -0.7310636E-01   -0.7310461E-01   -0.6594721E-01   -0.5233438E-01   -0.3359862E-01   -0.1157392E-01    0.1158375E-01    0.3360745E-01    0.5234130E-01
  0.6595142E-01    0.7310556E-01    0.7310361E-01    0.6594584E-01    0.5233292E-01    0.3359745E-01    0.1157321E-01   -0.1158396E-01   -0.3360728E-01   -0.5234109E-01
 -0.6595153E-01   -0.7310619E-01   -0.6594830E-01   -0.5949165E-01   -0.4721144E-01   -0.3030977E-01   -0.1044110E-01    0.1044958E-01    0.3031726E-01    0.4721718E-01
  0.5949495E-01    0.6594872E-01    0.6594699E-01    0.5948988E-01    0.4720948E-01    0.3030804E-01    0.1043976E-01   -0.1045059E-01   -0.3031796E-01   -0.4721784E-01
 -0.5949593E-01   -0.6595012E-01   -0.5233705E-01   -0.4721283E-01   -0.3746716E-01   -0.2405394E-01   -0.8286168E-02    0.8292611E-02    0.2405953E-01    0.3747122E-01
  0.4721472E-01    0.5233637E-01    0.5233493E-01    0.4721046E-01    0.3746472E-01    0.2405171E-01    0.8284190E-02   -0.8294329E-02   -0.2406104E-01   -0.3747281E-01
 -0.4721666E-01   -0.5233877E-01   -0.3360260E-01   -0.3031249E-01   -0.2405528E-01   -0.1544347E-01   -0.5320039E-02    0.5324050E-02    0.1544682E-01    0.2405738E-01
  0.3031288E-01    0.3360096E-01    0.3359984E-01    0.3030966E-01    0.2405247E-01    0.1544080E-01    0.5317584E-02   -0.5326324E-02   -0.1544903E-01   -0.2405967E-01
 -0.3031540E-01   -0.3360379E-01   -0.1157842E-01   -0.1044470E-01   -0.8288577E-02   -0.5321198E-02   -0.1833009E-02    0.1834460E-02    0.5322155E-02    0.8288782E-02
  0.1044386E-01    0.1157640E-01    0.1157573E-01    0.1044180E-01    0.8285581E-02    0.5318319E-02    0.1830277E-02   -0.1837174E-02   -0.5324828E-02   -0.8291501E-02
 -0.1044682E-01   -0.1157956E-01    0.1157846E-01    0.1044529E-01    0.8289429E-02    0.5322010E-02    0.1833510E-02   -0.1834652E-02   -0.5323369E-02   -0.8291125E-02
 -0.1044750E-01   -0.1158131E-01   -0.1158156E-01   -0.1044834E-01   -0.8292437E-02   -0.5324917E-02   -0.1836419E-02    0.1831743E-02    0.5320443E-02    0.8288028E-02
  0.1044420E-01    0.1157782E-01    0.3360219E-01    0.3031277E-01    0.2405598E-01    0.1544423E-01    0.5320513E-02   -0.5324149E-02   -0.1544782E-01   -0.2405951E-01
 -0.3031617E-01   -0.3360543E-01   -0.3360531E-01   -0.3031575E-01   -0.2405886E-01   -0.1544711E-01   -0.5323382E-02    0.5321213E-02    0.1544473E-01    0.2405633E-01
  0.3031293E-01    0.3360223E-01    0.5233709E-01    0.4721320E-01    0.3746777E-01    0.2405459E-01    0.8286673E-02   -0.8292566E-02   -0.2406025E-01   -0.3747280E-01
 -0.4721737E-01   -0.5234015E-01   -0.5233953E-01   -0.4721573E-01   -0.3747037E-01   -0.2405719E-01   -0.8289348E-02    0.8289652E-02    0.2405723E-01    0.3746972E-01
  0.4721418E-01    0.5233699E-01    0.6594786E-01    0.5949171E-01    0.4721176E-01    0.3031021E-01    0.1044152E-01   -0.1044943E-01   -0.3031760E-01   -0.4721815E-01
 -0.5949678E-01   -0.6595147E-01   -0.6595047E-01   -0.5949401E-01   -0.4721394E-01   -0.3031244E-01   -0.1044400E-01    0.1044673E-01    0.3031471E-01    0.4721508E-01
  0.5949371E-01    0.6594848E-01    0.7310369E-01    0.6594668E-01    0.5233421E-01    0.3359867E-01    0.1157408E-01   -0.1158358E-01   -0.3360747E-01   -0.5234169E-01
 -0.6595231E-01   -0.7310714E-01   -0.7310586E-01   -0.6594853E-01   -0.5233594E-01   -0.3360057E-01   -0.1157619E-01    0.1158113E-01    0.3360468E-01    0.5233888E-01
  0.6594963E-01    0.7310487E-01    0.7310399E-01    0.6594655E-01    0.5233382E-01    0.3359816E-01    0.1157357E-01   -0.1158403E-01   -0.3360780E-01   -0.5234175E-01
 -0.6595213E-01   -0.7310673E-01   -0.7310510E-01   -0.6594760E-01   -0.5233498E-01   -0.3359949E-01   -0.1157528E-01    0.1158180E-01    0.3360533E-01    0.5233924E-01
  0.6594973E-01    0.7310474E-01    0.6594723E-01    0.5949070E-01    0.4721045E-01    0.3030873E-01    0.1044004E-01   -0.1045070E-01   -0.3031846E-01   -0.4721839E-01
 -0.5949625E-01   -0.6595013E-01   -0.6594840E-01   -0.5949138E-01   -0.4721102E-01   -0.3030955E-01   -0.1044140E-01    0.1044888E-01    0.3031626E-01    0.4721601E-01
  0.5949407E-01    0.6594822E-01    0.5233562E-01    0.4721146E-01    0.3746577E-01    0.2405242E-01    0.8284522E-02   -0.8294373E-02   -0.2406137E-01   -0.3747301E-01
 -0.4721638E-01   -0.5233797E-01   -0.5233640E-01   -0.4721170E-01   -0.3746586E-01   -0.2405285E-01   -0.8285355E-02    0.8292947E-02    0.2405947E-01    0.3747118E-01
  0.4721478E-01    0.5233690E-01    0.3360186E-01    0.3031140E-01    0.2405393E-01    0.1544184E-01    0.5318227E-02   -0.5325980E-02   -0.1544884E-01   -0.2405923E-01
 -0.3031445E-01   -0.3360265E-01   -0.3360142E-01   -0.3031086E-01   -0.2405355E-01   -0.1544168E-01   -0.5318534E-02    0.5325002E-02    0.1544767E-01    0.2405816E-01
  0.3031355E-01    0.3360193E-01    0.1157756E-01    0.1044389E-01    0.8287505E-02    0.5319864E-02    0.1831555E-02   -0.1836008E-02   -0.5323698E-02   -0.8289884E-02
 -0.1044443E-01   -0.1157785E-01   -0.1157788E-01   -0.1044351E-01   -0.8286899E-02   -0.5319250E-02   -0.1831454E-02    0.1835753E-02    0.5323481E-02    0.8289747E-02
  0.1044474E-01    0.1157741E-01    0.1157752E-01    0.3360021E-01    0.5233267E-01    0.6594109E-01    0.7309268E-01    0.7308747E-01    0.6592599E-01    0.5230897E-01
  0.3357026E-01    0.1153492E-01   -0.1161259E-01   -0.3363365E-01   -0.5236310E-01   -0.6596980E-01   -0.7312047E-01   -0.7311516E-01   -0.6595604E-01   -0.5234178E-01
 -0.3360437E-01   -0.1158010E-01    0.1044403E-01    0.3031084E-01    0.4720930E-01    0.5948513E-01    0.6593622E-01    0.6593094E-01    0.5946974E-01    0.4718488E-01
  0.3027937E-01    0.1040738E-01   -0.1048037E-01   -0.3034471E-01   -0.4724012E-01   -0.5951380E-01   -0.6596408E-01   -0.6595911E-01   -0.5949997E-01   -0.4721826E-01
 -0.3031526E-01   -0.1044636E-01    0.8287569E-02    0.2405366E-01    0.3746383E-01    0.4720524E-01    0.5232399E-01    0.5231885E-01    0.4719022E-01    0.3744009E-01
  0.2402335E-01    0.8253876E-02   -0.8323614E-02   -0.2408740E-01   -0.3749486E-01   -0.4723425E-01   -0.5235221E-01   -0.5234756E-01   -0.4722085E-01   -0.3747349E-01
 -0.2405915E-01   -0.8291024E-02    0.5319383E-02    0.1544129E-01    0.2405028E-01    0.3030346E-01    0.3358851E-01    0.3358367E-01    0.3028933E-01    0.2402810E-01
  0.1541321E-01    0.5288445E-02   -0.5354686E-02   -0.1547471E-01   -0.2408150E-01   -0.3033295E-01   -0.3361733E-01   -0.3361304E-01   -0.3032037E-01   -0.2406143E-01
 -0.1544855E-01   -0.5324628E-02    0.1829985E-02    0.5316815E-02    0.8281731E-02    0.1043437E-01    0.1156382E-01    0.1155939E-01    0.1042149E-01    0.8261621E-02
  0.5291479E-02    0.1802195E-02   -0.1864490E-02   -0.5349867E-02   -0.8313036E-02   -0.1046430E-01   -0.1159328E-01   -0.1158934E-01   -0.1045283E-01   -0.8294825E-02
 -0.5326200E-02   -0.1837448E-02   -0.1839168E-02   -0.5328785E-02   -0.8298294E-02   -0.1045715E-01   -0.1159417E-01   -0.1159811E-01   -0.1046860E-01   -0.8316113E-02
 -0.5351090E-02   -0.1863543E-02    0.1805223E-02    0.5296023E-02    0.8266907E-02    0.1042678E-01    0.1156414E-01    0.1156765E-01    0.1043698E-01    0.8283076E-02
  0.5316940E-02    0.1828992E-02   -0.5328727E-02   -0.1545335E-01   -0.2406683E-01   -0.3032613E-01   -0.3361861E-01   -0.3362206E-01   -0.3033614E-01   -0.2408236E-01
 -0.1547274E-01   -0.5349933E-02    0.5295304E-02    0.1542083E-01    0.2403529E-01    0.3029536E-01    0.3358807E-01    0.3359110E-01    0.3030429E-01    0.2404945E-01
  0.1543896E-01    0.5315909E-02   -0.8297104E-02   -0.2406576E-01   -0.3748027E-01   -0.4722754E-01   -0.5235355E-01   -0.5235657E-01   -0.4723624E-01   -0.3749373E-01
 -0.2408262E-01   -0.8315518E-02    0.8264201E-02    0.2403349E-01    0.3744872E-01    0.4719655E-01    0.5232264E-01    0.5232533E-01    0.4720434E-01    0.3746098E-01
  0.2404928E-01    0.8282091E-02   -0.1045399E-01   -0.3032318E-01   -0.4722572E-01   -0.5950710E-01   -0.6596518E-01   -0.6596780E-01   -0.5951469E-01   -0.4723750E-01
 -0.3033787E-01   -0.1047000E-01    0.1042127E-01    0.3029102E-01    0.4719413E-01    0.5947585E-01    0.6593402E-01    0.6593639E-01    0.5948272E-01    0.4720494E-01
  0.3030492E-01    0.1043695E-01   -0.1158806E-01   -0.3361303E-01   -0.5234928E-01   -0.6596284E-01   -0.7312112E-01   -0.7312346E-01   -0.6596963E-01   -0.5235980E-01
 -0.3362616E-01   -0.1160247E-01    0.1155553E-01    0.3358089E-01    0.5231752E-01    0.6593140E-01    0.7308976E-01    0.7309186E-01    0.6593765E-01    0.5232738E-01
  0.3359338E-01    0.1156966E-01   -0.1158833E-01   -0.3361319E-01   -0.5234932E-01   -0.6596270E-01   -0.7312082E-01   -0.7312302E-01   -0.6596903E-01   -0.5235912E-01
 -0.3362552E-01   -0.1160186E-01    0.1155599E-01    0.3358110E-01    0.5231760E-01    0.6593126E-01    0.7308939E-01    0.7309147E-01    0.6593718E-01    0.5232684E-01
  0.3359299E-01    0.1156936E-01   -0.1045504E-01   -0.3032388E-01   -0.4722598E-01   -0.5950687E-01   -0.6596445E-01   -0.6596658E-01   -0.5951308E-01   -0.4723565E-01
 -0.3033598E-01   -0.1046830E-01    0.1042254E-01    0.3029173E-01    0.4719421E-01    0.5947533E-01    0.6593305E-01    0.6593511E-01    0.5948128E-01    0.4720353E-01
  0.3030361E-01    0.1043577E-01   -0.8298783E-02   -0.2406696E-01   -0.3748078E-01   -0.4722729E-01   -0.5235248E-01   -0.5235470E-01   -0.4723375E-01   -0.3749081E-01
 -0.2407957E-01   -0.8312810E-02    0.8266267E-02    0.2403469E-01    0.3744884E-01    0.4719576E-01    0.5232114E-01    0.5232325E-01    0.4720207E-01    0.3745876E-01
  0.2404712E-01    0.8280193E-02   -0.5330744E-02   -0.1545477E-01   -0.2406745E-01   -0.3032577E-01   -0.3361722E-01   -0.3361968E-01   -0.3033284E-01   -0.2407845E-01
 -0.1546870E-01   -0.5346183E-02    0.5298207E-02    0.1542246E-01    0.2403565E-01    0.3029445E-01    0.3358609E-01    0.3358855E-01    0.3030139E-01    0.2404645E-01
  0.1543630E-01    0.5313643E-02   -0.1841772E-02   -0.5330635E-02   -0.8299206E-02   -0.1045697E-01   -0.1159281E-01   -0.1159554E-01   -0.1046494E-01   -0.8311657E-02
 -0.5346280E-02   -0.1859038E-02    0.1808718E-02    0.5298120E-02    0.8267397E-02    0.1042574E-01    0.1156199E-01    0.1156470E-01    0.1043359E-01    0.8279724E-02
  0.5313746E-02    0.1826058E-02    0.1827206E-02    0.5314696E-02    0.8280561E-02    0.1043430E-01    0.1156500E-01    0.1156187E-01    0.1042517E-01    0.8266329E-02
  0.5296744E-02    0.1807200E-02   -0.1860491E-02   -0.5347432E-02   -0.8312457E-02   -0.1046528E-01   -0.1159547E-01   -0.1159247E-01   -0.1045630E-01   -0.8298349E-02
 -0.5329714E-02   -0.1840661E-02    0.5316798E-02    0.1543932E-01    0.2404912E-01    0.3030330E-01    0.3358948E-01    0.3358586E-01    0.3029282E-01    0.2403275E-01
  0.1541859E-01    0.5293889E-02   -0.5350334E-02   -0.1547214E-01   -0.2408071E-01   -0.3033380E-01   -0.3361944E-01   -0.3361584E-01   -0.3032364E-01   -0.2406486E-01
 -0.1545173E-01   -0.5327588E-02    0.8284985E-02    0.2405169E-01    0.3746260E-01    0.4720480E-01    0.5232447E-01    0.5232043E-01    0.4719298E-01    0.3744408E-01
  0.2402847E-01    0.8259526E-02   -0.8319378E-02   -0.2408484E-01   -0.3749410E-01   -0.4723502E-01   -0.5235383E-01   -0.5234990E-01   -0.4722367E-01   -0.3747619E-01
 -0.2406191E-01   -0.8293908E-02    0.1044199E-01    0.3030916E-01    0.4720818E-01    0.5948448E-01    0.6593618E-01    0.6593175E-01    0.5947138E-01    0.4718760E-01
  0.3028352E-01    0.1041406E-01   -0.1047677E-01   -0.3034262E-01   -0.4723969E-01   -0.5951432E-01   -0.6596504E-01   -0.6596082E-01   -0.5950190E-01   -0.4721999E-01
 -0.3031747E-01   -0.1044876E-01    0.1157625E-01    0.3359933E-01    0.5233209E-01    0.6594051E-01    0.7309232E-01    0.7308754E-01    0.6592626E-01    0.5230948E-01
  0.3357147E-01    0.1154782E-01   -0.1161152E-01   -0.3363289E-01   -0.5236333E-01   -0.6596999E-01   -0.7312049E-01   -0.7311607E-01   -0.6595682E-01   -0.5234207E-01
 -0.3360571E-01   -0.1158132E-01    0.7773335E-03    0.9839398E-03    0.1333056E-02    0.1687462E-02    0.1892774E-02    0.1839111E-02    0.1551309E-02    0.1139031E-02
  0.6394437E-03    0.2644503E-03    0.4642250E-03    0.6008155E-03    0.1049043E-02    0.1583921E-02    0.1655423E-02    0.1759186E-02    0.1668657E-02    0.1101016E-02
  0.8739014E-03    0.7982818E-03    0.9900285E-03    0.1189765E-02    0.1555455E-02    0.1913931E-02    0.2116012E-02    0.2077840E-02    0.1796538E-02    0.1381762E-02
  0.9061992E-03    0.6326633E-03    0.7396066E-03    0.8754758E-03    0.1311189E-02    0.1827247E-02    0.1928434E-02    0.2008416E-02    0.1901408E-02    0.1378087E-02
  0.1104534E-02    0.1002802E-02    0.1325646E-02    0.1541177E-02    0.1908680E-02    0.2258850E-02    0.2475885E-02    0.2443939E-02    0.2151840E-02    0.1760917E-02
  0.1303897E-02    0.1032306E-02    0.1125918E-02    0.1284075E-02    0.1677533E-02    0.2192517E-02    0.2330177E-02    0.2366836E-02    0.2266197E-02    0.1772073E-02
  0.1445095E-02    0.1354440E-02    0.1690194E-02    0.1903073E-02    0.2260302E-02    0.2621625E-02    0.2851433E-02    0.2801668E-02    0.2525344E-02    0.2164409E-02
  0.1678383E-02    0.1423725E-02    0.1540142E-02    0.1664460E-02    0.2062672E-02    0.2594622E-02    0.2700702E-02    0.2745813E-02    0.2654654E-02    0.2133795E-02