 TITLE = "NAVIER-STOKES OUTPUT"
 VARIABLES = "X", "Y", "U", "V", "P", "Pex", "Vor"
 ZONE I =   21, J =   21, DATAPACKING = BLOCK, VARLOCATION=(3=CELLCENTERED, 4=CELLCENTERED,5=CELLCENTERED,6=CELLCENTERED, 7=CELLCENTERED)
  0.0000000E+00    0.3141593E+00    0.6283185E+00    0.9424778E+00    0.1256637E+01    0.1570796E+01    0.1884956E+01    0.2199115E+01    0.2513274E+01    0.2827433E+01
  0.3141593E+01    0.3455752E+01    0.3769911E+01    0.4084071E+01    0.4398230E+01    0.4712389E+01    0.5026548E+01    0.5340708E+01    0.5654867E+01    0.5969026E+01
  0.6283185E+01    0.0000000E+00    0.3141593E+00    0.6283185E+00    0.9424778E+00    0.1256637E+01    0.1570796E+01    0.1884956E+01    0.2199115E+01    0.2513274E+01
  0.2827433E+01    0.3141593E+01    0.3455752E+01    0.3769911E+01    0.4084071E+01    0.4398230E+01    0.4712389E+01    0.5026548E+01    0.5340708E+01    0.5654867E+01
  0.5969026E+01    0.6283185E+01    0.0000000E+00    0.3141593E+00    0.6283185E+00    0.9424778E+00    0.1256637E+01    0.1570796E+01    0.1884956E+01    0.2199115E+01
  0.2513274E+01    0.2827433E+01    0.3141593E+01    0.3455752E+01    0.3769911E+01    0.4084071E+01    0.4398230E+01    0.4712389E+01    0.5026548E+01    0.5340708E+01
  0.5654867E+01    0.5969026E+01    0.6283185E+01    0.0000000E+00    0.3141593E+00    0.6283185E+00    0.9424778E+00    0.1256637E+01    0.1570796E+01    0.1884956E+01
  0.2199115E+01    0.2513274E+01    0.2827433E+01    0.3141593E+01    0.3455752E+01    0.3769911E+01    0.4084071E+01    0.4398230E+01    0.4712389E+01    0.5026548E+01
  0.5340708E+01    0.5654867E+01    0.5969026E+01    0.6283185E+01    0.0000000E+00    0.3141593E+00    0.6283185E+00    0.9424778E+00    0.1256637E+01    0.1570796E+01
  0.1884956E+01    0.2199115E+01    0.2513274E+01    0.2827433E+01    0.3141593E+01    0.3455752E+01    0.3769911E+01    0.4084071E+01    0.4398230E+01    0.4712389E+01
  0.5026548E+01    0.5340708E+01    0.5654867E+01    0.5969026E+01    0.6283185E+01    0.0000000E+00    0.3141593E+00    0.6283185E+00    0.9424778E+00    0.1256637E+01
  0.1570796E+01    0.1884956E+01    0.2199115E+01    0.2513274E+01    0.2827433E+01    0.3141593E+01    0.3455752E+01    0.3769911E+01    0.4084071E+01    0.4398230E+01
  0.4712389E+01    0.5026548E+01    0.5340708E+01    0.5654867E+01    0.5969026E+01    0.6283185E+01    0.0000000E+00    0.3141593E+00    0.6283185E+00    0.9424778E+00
  0.1256637E+01    0.1570796E+01    0.1884956E+01    0.2199115E+01    0.2513274E+01    0.2827433E+01    0.3141593E+01    0.3455752E+01    0.3769911E+01    0.4084071E+01
  0.4398230E+01    0.4712389E+01    0.5026548E+01    0.5340708E+01    0.5654867E+01    0.5969026E+01    0.6283185E+01    0.0000000E+00    0.3141593E+00    0.6283185E+00
  0.9424778E+00    0.1256637E+01    0.1570796E+01    0.1884956E+01    0.2199115E+01    0.2513274E+01    0.2827433E+01    0.3141593E+01    0.3455752E+01    0.3769911E+01
  0.4084071E+01    0.4398230E+01    0.4712389E+01    0.5026548E+01    0.5340708E+01    0.5654867E+01    0.5969026E+01    0.6283185E+01    0.0000000E+00    0.3141593E+00
  0.6283185E+00    0.9424778E+00    0.1256637E+01    0.1570796E+01    0.1884956E+01    0.2199115E+01    0.2513274E+01    0.2827433E+01    0.3141593E+01    0.3455752E+01
  0.3769911E+01    0.4084071E+01    0.4398230E+01    0.4712389E+01    0.5026548E+01    0.5340708E+01    0.5654867E+01    0.5969026E+01    0.6283185E+01    0.0000000E+00
  0.3141593E+00    0.6283185E+00    0.9424778E+00    0.1256637E+01    0.1570796E+01    0.1884956E+01    0.2199115E+01    0.2513274E+01    0.2827433E+01    0.3141593E+01
  0.3455752E+01    0.3769911E+01    0.4084071E+01    0.4398230E+01    0.4712389E+01    0.5026548E+01    0.5340708E+01    0.5654867E+01    0.5969026E+01    0.6283185E+01
  0.0000000E+00    0.3141593E+00    0.6283185E+00    0.9424778E+00    0.1256637E+01    0.1570796E+01    0.1884956E+01    0.2199115E+01    0.2513274E+01    0.2827433E+01
  0.3141593E+01    0.3455752E+01    0.3769911E+01    0.4084071E+01    0.4398230E+01    0.4712389E+01    0.5026548E+01    0.5340708E+01    0.5654867E+01    0.5969026E+01
  0.6283185E+01    0.0000000E+00    0.3141593E+00    0.6283185E+00    0.9424778E+00    0.1256637E+01    0.1570796E+01    0.1884956E+01    0.2199115E+01    0.2513274E+01
  0.2827433E+01    0.3141593E+01    0.3455752E+01    0.3769911E+01    0.4084071E+01    0.4398230E+01    0.4712389E+01    0.5026548E+01    0.5340708E+01    0.5654867E+01
  0.5969026E+01    0.6283185E+01    0.0000000E+00    0.3141593E+00    0.6283185E+00    0.9424778E+00    0.1256637E+01    0.1570796E+01    0.1884956E+01    0.2199115E+01
  0.2513274E+01    0.2827433E+01    0.3141593E+01    0.3455752E+01    0.3769911E+01    0.4084071E+01    0.4398230E+01    0.4712389E+01    0.5026548E+01    0.5340708E+01
  0.5654867E+01    0.5969026E+01    0.6283185E+01    0.0000000E+00    0.3141593E+00    0.6283185E+00    0.9424778E+00    0.1256637E+01    0.1570796E+01    0.1884956E+01
  0.2199115E+01    0.2513274E+01    0.2827433E+01    0.3141593E+01    0.3455752E+01    0.3769911E+01    0.4084071E+01    0.4398230E+01    0.4712389E+01    0.5026548E+01
  0.5340708E+01    0.5654867E+01    0.5969026E+01    0.6283185E+01    0.0000000E+00    0.3141593E+00    0.6283185E+00    0.9424778E+00    0.1256637E+01    0.1570796E+01
  0.1884956E+01    0.2199115E+01    0.2513274E+01    0.2827433E+01    0.3141593E+01    0.3455752E+01    0.3769911E+01    0.4084071E+01    0.4398230E+01    0.4712389E+01
  0.5026548E+01    0.5340708E+01    0.5654867E+01    0.5969026E+01    0.6283185E+01    0.0000000E+00    0.3141593E+00    0.6283185E+00    0.9424778E+00    0.1256637E+01
  0.1570796E+01    0.1884956E+01    0.2199115E+01    0.2513274E+01    0.2827433E+01    0.3141593E+01    0.3455752E+01    0.3769911E+01    0.4084071E+01    0.4398230E+01
  0.4712389E+01    0.5026548E+01    0.5340708E+01    0.5654867E+01    0.5969026E+01    0.6283185E+01    0.0000000E+00    0.3141593E+00    0.6283185E+00    0.9424778E+00
  0.1256637E+01    0.1570796E+01    0.1884956E+01    0.2199115E+01    0.2513274E+01    0.2827433E+01    0.3141593E+01    0.3455752E+01    0.3769911E+01    0.4084071E+01
  0.4398230E+01    0.4712389E+01    0.5026548E+01    0.5340708E+01    0.5654867E+01    0.5969026E+01    0.6283185E+01    0.0000000E+00    0.3141593E+00    0.6283185E+00
  0.9424778E+00    0.1256637E+01    0.1570796E+01    0.1884956E+01    0.2199115E+01    0.2513274E+01    0.2827433E+01    0.3141593E+01    0.3455752E+01    0.3769911E+01
  0.4084071E+01    0.4398230E+01    0.4712389E+01    0.5026548E+01    0.5340708E+01    0.5654867E+01    0.5969026E+01    0.6283185E+01    0.0000000E+00    0.3141593E+00
  0.6283185E+00    0.9424778E+00    0.1256637E+01    0.1570796E+01    0.1884956E+01    0.2199115E+01    0.2513274E+01    0.2827433E+01    0.3141593E+01    0.3455752E+01
  0.3769911E+01    0.4084071E+01    0.4398230E+01    0.4712389E+01    0.5026548E+01    0.5340708E+01    0.5654867E+01    0.5969026E+01    0.6283185E+01    0.0000000E+00
  0.3141593E+00    0.6283185E+00    0.9424778E+00    0.1256637E+01    0.1570796E+01    0.1884956E+01    0.2199115E+01    0.2513274E+01    0.2827433E+01    0.3141593E+01
  0.3455752E+01    0.3769911E+01    0.4084071E+01    0.4398230E+01    0.4712389E+01    0.5026548E+01    0.5340708E+01    0.5654867E+01    0.5969026E+01    0.6283185E+01
  0.0000000E+00    0.3141593E+00    0.6283185E+00    0.9424778E+00    0.1256637E+01    0.1570796E+01    0.1884956E+01    0.2199115E+01    0.2513274E+01    0.2827433E+01
  0.3141593E+01    0.3455752E+01    0.3769911E+01    0.4084071E+01    0.4398230E+01    0.4712389E+01    0.5026548E+01    0.5340708E+01    0.5654867E+01    0.5969026E+01
  0.6283185E+01    0.0000000E+00    0.0000000E+00    0.0000000E+00    0.0000000E+00    0.0000000E+00    0.0000000E+00    0.0000000E+00    0.0000000E+00    0.0000000E+00
  0.0000000E+00    0.0000000E+00    0.0000000E+00    0.0000000E+00    0.0000000E+00    0.0000000E+00    0.0000000E+00    0.0000000E+00    0.0000000E+00    0.0000000E+00
  0.0000000E+00    0.0000000E+00    0.3141593E+00    0.3141593E+00    0.3141593E+00    0.3141593E+00    0.3141593E+00    0.3141593E+00    0.3141593E+00    0.3141593E+00
  0.3141593E+00    0.3141593E+00    0.3141593E+00    0.3141593E+00    0.3141593E+00    0.3141593E+00    0.3141593E+00    0.3141593E+00    0.3141593E+00    0.3141593E+00
  0.3141593E+00    0.3141593E+00    0.3141593E+00    0.6283185E+00    0.6283185E+00    0.6283185E+00    0.6283185E+00    0.6283185E+00    0.6283185E+00    0.6283185E+00
  0.6283185E+00    0.6283185E+00    0.6283185E+00    0.6283185E+00    0.6283185E+00    0.6283185E+00    0.6283185E+00    0.6283185E+00    0.6283185E+00    0.6283185E+00
  0.6283185E+00    0.6283185E+00    0.6283185E+00    0.6283185E+00    0.9424778E+00    0.9424778E+00    0.9424778E+00    0.9424778E+00    0.9424778E+00    0.9424778E+00
  0.9424778E+00    0.9424778E+00    0.9424778E+00    0.9424778E+00    0.9424778E+00    0.9424778E+00    0.9424778E+00    0.9424778E+00    0.9424778E+00    0.9424778E+00
  0.9424778E+00    0.9424778E+00    0.9424778E+00    0.9424778E+00    0.9424778E+00    0.1256637E+01    0.1256637E+01    0.1256637E+01    0.1256637E+01    0.1256637E+01
  0.1256637E+01    0.1256637E+01    0.1256637E+01    0.1256637E+01    0.1256637E+01    0.1256637E+01    0.1256637E+01    0.1256637E+01    0.1256637E+01    0.1256637E+01
  0.1256637E+01    0.1256637E+01    0.1256637E+01    0.1256637E+01    0.1256637E+01    0.1256637E+01    0.1570796E+01    0.1570796E+01    0.1570796E+01    0.1570796E+01
  0.1570796E+01    0.1570796E+01    0.1570796E+01    0.1570796E+01    0.1570796E+01    0.1570796E+01    0.1570796E+01    0.1570796E+01    0.1570796E+01    0.1570796E+01
  0.1570796E+01    0.1570796E+01    0.1570796E+01    0.1570796E+01    0.1570796E+01    0.1570796E+01    0.1570796E+01    0.1884956E+01    0.1884956E+01    0.1884956E+01
  0.1884956E+01    0.1884956E+01    0.1884956E+01    0.1884956E+01    0.1884956E+01    0.1884956E+01    0.1884956E+01    0.1884956E+01    0.1884956E+01    0.1884956E+01
  0.1884956E+01    0.1884956E+01    0.1884956E+01    0.1884956E+01    0.1884956E+01    0.1884956E+01    0.1884956E+01    0.1884956E+01    0.2199115E+01    0.2199115E+01
  0.2199115E+01    0.2199115E+01    0.2199115E+01    0.2199115E+01    0.2199115E+01    0.2199115E+01    0.2199115E+01    0.2199115E+01    0.2199115E+01    0.2199115E+01
  0.2199115E+01    0.2199115E+01    0.2199115E+01    0.2199115E+01    0.2199115E+01    0.2199115E+01    0.2199115E+01    0.2199115E+01    0.2199115E+01    0.2513274E+01
  0.2513274E+01    0.2513274E+01    0.2513274E+01    0.2513274E+01    0.2513274E+01    0.2513274E+01    0.2513274E+01    0.2513274E+01    0.2513274E+01    0.2513274E+01
  0.2513274E+01    0.2513274E+01    0.2513274E+01    0.2513274E+01    0.2513274E+01    0.2513274E+01    0.2513274E+01    0.2513274E+01    0.2513274E+01    0.2513274E+01
  0.2827433E+01    0.2827433E+01    0.2827433E+01    0.2827433E+01    0.2827433E+01    0.2827433E+01    0.2827433E+01    0.2827433E+01    0.2827433E+01    0.2827433E+01
  0.2827433E+01    0.2827433E+01    0.2827433E+01    0.2827433E+01    0.2827433E+01    0.2827433E+01    0.2827433E+01    0.2827433E+01    0.2827433E+01    0.2827433E+01
  0.2827433E+01    0.3141593E+01    0.3141593E+01    0.3141593E+01    0.3141593E+01    0.3141593E+01    0.3141593E+01    0.3141593E+01    0.3141593E+01    0.3141593E+01
  0.3141593E+01    0.3141593E+01    0.3141593E+01    0.3141593E+01    0.3141593E+01    0.3141593E+01    0.3141593E+01    0.3141593E+01    0.3141593E+01    0.3141593E+01
  0.3141593E+01    0.3141593E+01    0.3455752E+01    0.3455752E+01    0.3455752E+01    0.3455752E+01    0.3455752E+01    0.3455752E+01    0.3455752E+01    0.3455752E+01
  0.3455752E+01    0.3455752E+01    0.3455752E+01    0.3455752E+01    0.3455752E+01    0.3455752E+01    0.3455752E+01    0.3455752E+01    0.3455752E+01    0.3455752E+01
  0.3455752E+01    0.3455752E+01    0.3455752E+01    0.3769911E+01    0.3769911E+01    0.3769911E+01    0.3769911E+01    0.3769911E+01    0.3769911E+01    0.3769911E+01
  0.3769911E+01    0.3769911E+01    0.3769911E+01    0.3769911E+01    0.3769911E+01    0.3769911E+01    0.3769911E+01    0.3769911E+01    0.3769911E+01    0.3769911E+01
  0.3769911E+01    0.3769911E+01    0.3769911E+01    0.3769911E+01    0.4084071E+01    0.4084071E+01    0.4084071E+01    0.4084071E+01    0.4084071E+01    0.4084071E+01
  0.4084071E+01    0.4084071E+01    0.4084071E+01    0.4084071E+01    0.4084071E+01    0.4084071E+01    0.4084071E+01    0.4084071E+01    0.4084071E+01    0.4084071E+01
  0.4084071E+01    0.4084071E+01    0.4084071E+01    0.4084071E+01    0.4084071E+01    0.4398230E+01    0.4398230E+01    0.4398230E+01    0.4398230E+01    0.4398230E+01
  0.4398230E+01    0.4398230E+01    0.4398230E+01    0.4398230E+01    0.4398230E+01    0.4398230E+01    0.4398230E+01    0.4398230E+01    0.4398230E+01    0.4398230E+01
  0.4398230E+01    0.4398230E+01    0.4398230E+01    0.4398230E+01    0.4398230E+01    0.4398230E+01    0.4712389E+01    0.4712389E+01    0.4712389E+01    0.4712389E+01
  0.4712389E+01    0.4712389E+01    0.4712389E+01    0.4712389E+01    0.4712389E+01    0.4712389E+01    0.4712389E+01    0.4712389E+01    0.4712389E+01    0.4712389E+01
  0.4712389E+01    0.4712389E+01    0.4712389E+01    0.4712389E+01    0.4712389E+01    0.4712389E+01    0.4712389E+01    0.5026548E+01    0.5026548E+01    0.5026548E+01
  0.5026548E+01    0.5026548E+01    0.5026548E+01    0.5026548E+01    0.5026548E+01    0.5026548E+01    0.5026548E+01    0.5026548E+01    0.5026548E+01    0.5026548E+01
  0.5026548E+01    0.5026548E+01    0.5026548E+01    0.5026548E+01    0.5026548E+01    0.5026548E+01    0.5026548E+01    0.5026548E+01    0.5340708E+01    0.5340708E+01
  0.5340708E+01    0.5340708E+01    0.5340708E+01    0.5340708E+01    0.5340708E+01    0.5340708E+01    0.5340708E+01    0.5340708E+01    0.5340708E+01    0.5340708E+01
  0.5340708E+01    0.5340708E+01    0.5340708E+01    0.5340708E+01    0.5340708E+01    0.5340708E+01    0.5340708E+01    0.5340708E+01    0.5340708E+01    0.5654867E+01
  0.5654867E+01    0.5654867E+01    0.5654867E+01    0.5654867E+01    0.5654867E+01    0.5654867E+01    0.5654867E+01    0.5654867E+01    0.5654867E+01    0.5654867E+01
  0.5654867E+01    0.5654867E+01    0.5654867E+01    0.5654867E+01    0.5654867E+01    0.5654867E+01    0.5654867E+01    0.5654867E+01    0.5654867E+01    0.5654867E+01
  0.5969026E+01    0.5969026E+01    0.5969026E+01    0.5969026E+01    0.5969026E+01    0.5969026E+01    0.5969026E+01    0.5969026E+01    0.5969026E+01    0.5969026E+01
  0.5969026E+01    0.5969026E+01    0.5969026E+01    0.5969026E+01    0.5969026E+01    0.5969026E+01    0.5969026E+01    0.5969026E+01    0.5969026E+01    0.5969026E+01
  0.5969026E+01    0.6283185E+01    0.6283185E+01    0.6283185E+01    0.6283185E+01    0.6283185E+01    0.6283185E+01    0.6283185E+01    0.6283185E+01    0.6283185E+01
  0.6283185E+01    0.6283185E+01    0.6283185E+01    0.6283185E+01    0.6283185E+01    0.6283185E+01    0.6283185E+01    0.6283185E+01    0.6283185E+01    0.6283185E+01
  0.6283185E+01    0.6283185E+01   -0.3447217E-01   -0.3109760E-01   -0.2467872E-01   -0.1584401E-01   -0.5458048E-02    0.5463122E-02    0.1585086E-01    0.2468921E-01
  0.3111238E-01    0.3447263E-01    0.3445826E-01    0.3108844E-01    0.2467352E-01    0.1584074E-01    0.5456743E-02   -0.5462935E-02   -0.1584870E-01   -0.2468216E-01
 -0.3110065E-01   -0.3447564E-01   -0.1000407E+00   -0.9024685E-01   -0.7161842E-01   -0.4597872E-01   -0.1583720E-01    0.1585607E-01    0.4599872E-01    0.7163951E-01
  0.9026528E-01    0.1000444E+00    0.1000303E+00    0.9023510E-01    0.7160933E-01    0.4597324E-01    0.1583609E-01   -0.1585279E-01   -0.4599093E-01   -0.7162734E-01
 -0.9025346E-01   -0.1000456E+00   -0.1558166E+00   -0.1405622E+00   -0.1115477E+00   -0.7161298E-01   -0.2466685E-01    0.2469539E-01    0.7164131E-01    0.1115740E+00
  0.1405819E+00    0.1558227E+00    0.1558102E+00    0.1405516E+00    0.1115379E+00    0.7160677E-01    0.2466590E-01   -0.2469070E-01   -0.7163160E-01   -0.1115614E+00
 -0.1405720E+00   -0.1558233E+00   -0.1963408E+00   -0.1771188E+00   -0.1405584E+00   -0.9023803E-01   -0.3108314E-01    0.3111568E-01    0.9026916E-01    0.1405856E+00
  0.1771379E+00    0.1963473E+00    0.1963366E+00    0.1771102E+00    0.1405495E+00    0.9023198E-01    0.3108203E-01   -0.3111139E-01   -0.9026049E-01   -0.1405751E+00
 -0.1771304E+00   -0.1963478E+00   -0.2176452E+00   -0.1963377E+00   -0.1558106E+00   -0.1000305E+00   -0.3445755E-01    0.3448924E-01    0.1000601E+00    0.1558356E+00
  0.1963549E+00    0.2176515E+00    0.2176427E+00    0.1963311E+00    0.1558030E+00    0.1000249E+00    0.3445588E-01   -0.3448654E-01   -0.1000540E+00   -0.1558284E+00
 -0.1963502E+00   -0.2176524E+00   -0.2176450E+00   -0.1963378E+00   -0.1558110E+00   -0.1000313E+00   -0.3445911E-01    0.3448682E-01    0.1000569E+00    0.1558320E+00
  0.1963519E+00    0.2176502E+00    0.2176431E+00    0.1963325E+00    0.1558045E+00    0.1000261E+00    0.3445664E-01   -0.3448610E-01   -0.1000539E+00   -0.1558284E+00
 -0.1963503E+00   -0.2176530E+00   -0.1963407E+00   -0.1771190E+00   -0.1405593E+00   -0.9024011E-01   -0.3108706E-01    0.3110937E-01    0.9026044E-01    0.1405756E+00
  0.1771294E+00    0.1963437E+00    0.1963382E+00    0.1771142E+00    0.1405536E+00    0.9023507E-01    0.3108386E-01   -0.3111050E-01   -0.9026019E-01   -0.1405752E+00
 -0.1771306E+00   -0.1963480E+00   -0.1558161E+00   -0.1405618E+00   -0.1115481E+00   -0.7161484E-01   -0.2467107E-01    0.2468782E-01    0.7162991E-01    0.1115599E+00
  0.1405691E+00    0.1558178E+00    0.1558138E+00    0.1405577E+00    0.1115431E+00    0.7161014E-01    0.2466742E-01   -0.2469032E-01   -0.7163168E-01   -0.1115618E+00
 -0.1405721E+00   -0.1558227E+00   -0.1000386E+00   -0.9024504E-01   -0.7161720E-01   -0.4597864E-01   -0.1583918E-01    0.1585079E-01    0.4598902E-01    0.7162514E-01
  0.9024972E-01    0.1000396E+00    0.1000367E+00    0.9024158E-01    0.7161300E-01    0.4597439E-01    0.1583538E-01   -0.1585405E-01   -0.4599212E-01   -0.7162865E-01
 -0.9025425E-01   -0.1000458E+00   -0.3446966E-01   -0.3109447E-01   -0.2467551E-01   -0.1584112E-01   -0.5456028E-02    0.5463150E-02    0.1584734E-01    0.2468003E-01
  0.3109666E-01    0.3446900E-01    0.3446710E-01    0.3109133E-01    0.2467196E-01    0.1583739E-01    0.5452430E-02   -0.5466706E-02   -0.1585119E-01   -0.2468441E-01
 -0.3110204E-01   -0.3447585E-01    0.3447490E-01    0.3110065E-01    0.2468212E-01    0.1584760E-01    0.5461835E-02   -0.5458641E-02   -0.1584494E-01   -0.2468035E-01
 -0.3110006E-01   -0.3447567E-01   -0.3447664E-01   -0.3110294E-01   -0.2468484E-01   -0.1585057E-01   -0.5465016E-02    0.5455086E-02    0.1584089E-01    0.2467569E-01
  0.3109467E-01    0.3446981E-01    0.1000452E+00    0.9025162E-01    0.7162394E-01    0.4598533E-01    0.1584532E-01   -0.1584579E-01   -0.4598588E-01   -0.7162469E-01
 -0.9025243E-01   -0.1000457E+00   -0.1000459E+00   -0.9025303E-01   -0.7162573E-01   -0.4598755E-01   -0.1584807E-01    0.1584245E-01    0.4598175E-01    0.7161970E-01
  0.9024671E-01    0.1000392E+00    0.1558208E+00    0.1405677E+00    0.1115547E+00    0.7162171E-01    0.2467779E-01   -0.2468182E-01   -0.7162553E-01   -0.1115580E+00
 -0.1405704E+00   -0.1558227E+00   -0.1558222E+00   -0.1405687E+00   -0.1115557E+00   -0.7162328E-01   -0.2468003E-01    0.2467862E-01    0.7162121E-01    0.1115529E+00
  0.1405644E+00    0.1558160E+00    0.1963454E+00    0.1771247E+00    0.1405658E+00    0.9024723E-01    0.3109449E-01   -0.3110214E-01   -0.9025431E-01   -0.1405716E+00
 -0.1771287E+00   -0.1963471E+00   -0.1963456E+00   -0.1771247E+00   -0.1405660E+00   -0.9024798E-01   -0.3109632E-01    0.3109889E-01    0.9024982E-01    0.1405662E+00
  0.1771230E+00    0.1963419E+00    0.2176506E+00    0.1963435E+00    0.1558173E+00    0.1000386E+00    0.3446709E-01   -0.3447841E-01   -0.1000489E+00   -0.1558258E+00
 -0.1963490E+00   -0.2176519E+00   -0.2176496E+00   -0.1963425E+00   -0.1558164E+00   -0.1000386E+00   -0.3446869E-01    0.3447504E-01    0.1000438E+00    0.1558195E+00
  0.1963424E+00    0.2176455E+00    0.2176483E+00    0.1963421E+00    0.1558160E+00    0.1000371E+00    0.3446544E-01   -0.3448018E-01   -0.1000507E+00   -0.1558272E+00
 -0.1963497E+00   -0.2176518E+00   -0.2176485E+00   -0.1963406E+00   -0.1558143E+00   -0.1000365E+00   -0.3446679E-01    0.3447640E-01    0.1000447E+00    0.1558200E+00
  0.1963424E+00    0.2176449E+00    0.1963440E+00    0.1771224E+00    0.1405627E+00    0.9024339E-01    0.3108995E-01   -0.3110716E-01   -0.9025928E-01   -0.1405757E+00
 -0.1771309E+00   -0.1963467E+00   -0.1963425E+00   -0.1771196E+00   -0.1405599E+00   -0.9024198E-01   -0.3109119E-01    0.3110283E-01    0.9025247E-01    0.1405677E+00
  0.1771234E+00    0.1963417E+00    0.1558200E+00    0.1405648E+00    0.1115503E+00    0.7161621E-01    0.2467129E-01   -0.2468906E-01   -0.7163264E-01   -0.1115639E+00
 -0.1405735E+00   -0.1558219E+00   -0.1558174E+00   -0.1405611E+00   -0.1115466E+00   -0.7161437E-01   -0.2467258E-01    0.2468448E-01    0.7162511E-01    0.1115547E+00
  0.1405650E+00    0.1558151E+00    0.1000403E+00    0.9024671E-01    0.7161855E-01    0.4597918E-01    0.1583832E-01   -0.1585333E-01   -0.4599315E-01   -0.7163032E-01
 -0.9025487E-01   -0.1000443E+00   -0.1000406E+00   -0.9024443E-01   -0.7161553E-01   -0.4597771E-01   -0.1583964E-01    0.1584898E-01    0.4598596E-01    0.7162190E-01
  0.9024714E-01    0.1000375E+00    0.3447163E-01    0.3109646E-01    0.2467735E-01    0.1584248E-01    0.5456436E-02   -0.5463871E-02   -0.1584892E-01   -0.2468189E-01
 -0.3109842E-01   -0.3447331E-01   -0.3447381E-01   -0.3109712E-01   -0.2467669E-01   -0.1584230E-01   -0.5457965E-02    0.5461035E-02    0.1584490E-01    0.2467778E-01
  0.3109619E-01    0.3447049E-01    0.3447774E-01    0.1000475E+00    0.1558243E+00    0.1963473E+00    0.2176491E+00    0.2176424E+00    0.1963248E+00    0.1557806E+00
  0.9997275E-01    0.3434940E-01   -0.3454646E-01   -0.1000875E+00   -0.1558464E+00   -0.1963560E+00   -0.2176507E+00   -0.2176467E+00   -0.1963370E+00   -0.1558102E+00
 -0.1000356E+00   -0.3446537E-01    0.3110289E-01    0.9025392E-01    0.1405706E+00    0.1771266E+00    0.1963423E+00    0.1963348E+00    0.1771020E+00    0.1405243E+00
  0.9018019E-01    0.3100246E-01   -0.3117101E-01   -0.9029780E-01   -0.1405955E+00   -0.1771380E+00   -0.1963473E+00   -0.1963417E+00   -0.1771182E+00   -0.1405588E+00
 -0.9024253E-01   -0.3109146E-01    0.2468332E-01    0.7162536E-01    0.1115563E+00    0.1405665E+00    0.1558148E+00    0.1558069E+00    0.1405414E+00    0.1115114E+00
  0.7155947E-01    0.2460322E-01   -0.2474511E-01   -0.7166972E-01   -0.1115841E+00   -0.1405822E+00   -0.1558249E+00   -0.1558187E+00   -0.1405622E+00   -0.1115483E+00
 -0.7161643E-01   -0.2467422E-01    0.1584708E-01    0.4598516E-01    0.7162163E-01    0.9024605E-01    0.1000342E+00    0.1000265E+00    0.9022240E-01    0.7158126E-01
  0.4592950E-01    0.1578291E-01   -0.1590168E-01   -0.4602791E-01   -0.7165159E-01   -0.9026626E-01   -0.1000498E+00   -0.1000438E+00   -0.9024730E-01   -0.7161851E-01
 -0.4598038E-01   -0.1584179E-01    0.5459376E-02    0.1584339E-01    0.2467583E-01    0.3109135E-01    0.3446104E-01    0.3445405E-01    0.3107038E-01    0.2464139E-01
  0.1579786E-01    0.5408377E-02   -0.5507659E-02   -0.1588376E-01   -0.2470701E-01   -0.3111526E-01   -0.3448167E-01   -0.3447617E-01   -0.3109836E-01   -0.2467824E-01
 -0.1584368E-01   -0.5458936E-02   -0.5462552E-02   -0.1584924E-01   -0.2468549E-01   -0.3110695E-01   -0.3448577E-01   -0.3449179E-01   -0.3112474E-01   -0.2471395E-01
 -0.1588584E-01   -0.5502892E-02    0.5419519E-02    0.1581138E-01    0.2465392E-01    0.3108037E-01    0.3446129E-01    0.3446605E-01    0.3109468E-01    0.2467778E-01
  0.1584398E-01    0.5458211E-02   -0.1585006E-01   -0.4599067E-01   -0.7163062E-01   -0.9026061E-01   -0.1000574E+00   -0.1000624E+00   -0.9027529E-01   -0.7165368E-01
 -0.4601967E-01   -0.1588166E-01    0.1581074E-01    0.4595485E-01    0.7159898E-01    0.9023220E-01    0.1000303E+00    0.1000342E+00    0.9024389E-01    0.7161830E-01
  0.4598079E-01    0.1584127E-01   -0.2468631E-01   -0.7163043E-01   -0.1115643E+00   -0.1405794E+00   -0.1558355E+00   -0.1558397E+00   -0.1405913E+00   -0.1115828E+00
 -0.7165339E-01   -0.2471099E-01    0.2464955E-01    0.7159613E-01    0.1115328E+00    0.1405499E+00    0.1558067E+00    0.1558098E+00    0.1405593E+00    0.1115482E+00
  0.7161656E-01    0.2467345E-01   -0.3110590E-01   -0.9025860E-01   -0.1405777E+00   -0.1771377E+00   -0.1963603E+00   -0.1963637E+00   -0.1771475E+00   -0.1405927E+00
 -0.9027716E-01   -0.3112577E-01    0.3107130E-01    0.9022564E-01    0.1405465E+00    0.1771078E+00    0.1963305E+00    0.1963331E+00    0.1771154E+00    0.1405588E+00
  0.9024194E-01    0.3109019E-01   -0.3448119E-01   -0.1000522E+00   -0.1558309E+00   -0.1963575E+00   -0.2176651E+00   -0.2176679E+00   -0.1963657E+00   -0.1558435E+00
 -0.1000675E+00   -0.3449765E-01    0.3444788E-01    0.1000201E+00    0.1558000E+00    0.1963274E+00    0.2176351E+00    0.2176372E+00    0.1963337E+00    0.1558103E+00
  0.1000337E+00    0.3446368E-01   -0.3448182E-01   -0.1000525E+00   -0.1558310E+00   -0.1963573E+00   -0.2176646E+00   -0.2176671E+00   -0.1963645E+00   -0.1558419E+00
 -0.1000659E+00   -0.3449610E-01    0.3444920E-01    0.1000209E+00    0.1558004E+00    0.1963273E+00    0.2176346E+00    0.2176365E+00    0.1963331E+00    0.1558096E+00
  0.1000329E+00    0.3446310E-01   -0.3110705E-01   -0.9025931E-01   -0.1405778E+00   -0.1771372E+00   -0.1963588E+00   -0.1963612E+00   -0.1771439E+00   -0.1405882E+00
 -0.9027215E-01   -0.3112092E-01    0.3107531E-01    0.9022829E-01    0.1405477E+00    0.1771076E+00    0.1963293E+00    0.1963313E+00    0.1771133E+00    0.1405566E+00
  0.9023995E-01    0.3108850E-01   -0.2468811E-01   -0.7163167E-01   -0.1115648E+00   -0.1405787E+00   -0.1558335E+00   -0.1558358E+00   -0.1405855E+00   -0.1115754E+00
 -0.7164485E-01   -0.2470259E-01    0.2465651E-01    0.7160084E-01    0.1115349E+00    0.1405496E+00    0.1558047E+00    0.1558068E+00    0.1405557E+00    0.1115447E+00
  0.7161338E-01    0.2467078E-01   -0.1585322E-01   -0.4599284E-01   -0.7163176E-01   -0.9026036E-01   -0.1000553E+00   -0.1000578E+00   -0.9026777E-01   -0.7164333E-01
 -0.4600748E-01   -0.1586934E-01    0.1582119E-01    0.4596184E-01    0.7160209E-01    0.9023198E-01    0.1000275E+00    0.1000299E+00    0.9023911E-01    0.7161338E-01
  0.4597621E-01    0.1583742E-01   -0.5466110E-02   -0.1585198E-01   -0.2468728E-01   -0.3110730E-01   -0.3448394E-01   -0.3448687E-01   -0.3111587E-01   -0.2470091E-01
 -0.1586956E-01   -0.5485818E-02    0.5434011E-02    0.1582102E-01    0.2465825E-01    0.3108011E-01    0.3445781E-01    0.3446080E-01    0.3108864E-01    0.2467166E-01
  0.1583838E-01    0.5453324E-02    0.5455192E-02    0.1583986E-01    0.2467311E-01    0.3108994E-01    0.3446186E-01    0.3445845E-01    0.3107978E-01    0.2465672E-01
  0.1581857E-01    0.5431030E-02   -0.5488560E-02   -0.1587135E-01   -0.2470171E-01   -0.3111574E-01   -0.3448583E-01   -0.3448238E-01   -0.3110544E-01   -0.2468515E-01
 -0.1584995E-01   -0.5464234E-02    0.1584194E-01    0.4598079E-01    0.7161786E-01    0.9024332E-01    0.1000335E+00    0.1000295E+00    0.9023126E-01    0.7159818E-01
  0.4595478E-01    0.1581246E-01   -0.1587740E-01   -0.4601326E-01   -0.7164597E-01   -0.9026713E-01   -0.1000548E+00   -0.1000508E+00   -0.9025487E-01   -0.7162610E-01
 -0.4598732E-01   -0.1584762E-01    0.2467886E-01    0.7162104E-01    0.1115520E+00    0.1405628E+00    0.1558126E+00    0.1558080E+00    0.1405487E+00    0.1115286E+00
  0.7158928E-01    0.2464235E-01   -0.2471581E-01   -0.7165414E-01   -0.1115791E+00   -0.1405840E+00   -0.1558307E+00   -0.1558259E+00   -0.1405699E+00   -0.1115561E+00
 -0.7162320E-01   -0.2467998E-01    0.3109895E-01    0.9024965E-01    0.1405660E+00    0.1771222E+00    0.1963389E+00    0.1963337E+00    0.1771063E+00    0.1405392E+00
  0.9021284E-01    0.3105660E-01   -0.3113837E-01   -0.9028401E-01   -0.1405925E+00   -0.1771408E+00   -0.1963536E+00   -0.1963486E+00   -0.1771251E+00   -0.1405662E+00
 -0.9024836E-01   -0.3109563E-01    0.3447392E-01    0.1000433E+00    0.1558195E+00    0.1963427E+00    0.2176451E+00    0.2176393E+00    0.1963254E+00    0.1557902E+00
  0.1000029E+00    0.3443067E-01   -0.3451553E-01   -0.1000797E+00   -0.1558464E+00   -0.1963591E+00   -0.2176576E+00   -0.2176524E+00   -0.1963420E+00   -0.1558180E+00
 -0.1000406E+00   -0.3446786E-01   -0.1236199E-02    0.9026344E-03    0.4370860E-02    0.7813056E-02    0.9927718E-02    0.9953320E-02    0.7829057E-02    0.4370982E-02
  0.9204482E-03   -0.1376614E-02   -0.1201517E-02    0.1061354E-02    0.4484962E-02    0.7894087E-02    0.1011770E-01    0.1007130E-01    0.7889173E-02    0.4559079E-02
  0.1053352E-02   -0.1185709E-02    0.9121042E-03    0.3039885E-02    0.6491977E-02    0.9933657E-02    0.1205323E-01    0.1206539E-01    0.9942667E-02    0.6493998E-02
  0.3056176E-02    0.8933892E-03    0.9308102E-03    0.3151215E-02    0.6596093E-02    0.1000913E-01    0.1220247E-01    0.1218909E-01    0.1001507E-01    0.6642831E-02
  0.3184703E-02    0.9745198E-03    0.4402417E-02    0.6514474E-02    0.9951383E-02    0.1339884E-01    0.1551281E-01    0.1551312E-01    0.1340199E-01    0.9951630E-02
  0.6523545E-02    0.4405031E-02    0.4397286E-02    0.6579790E-02    0.1004581E-01    0.1344681E-01    0.1561423E-01    0.1563867E-01    0.1345664E-01    0.1005594E-01
  0.6653093E-02    0.4454251E-02    0.7847981E-02    0.9966325E-02    0.1341174E-01    0.1685416E-01    0.1895831E-01    0.1897068E-01    0.1685442E-01    0.1339597E-01
  0.9994938E-02    0.7875054E-02    0.7841805E-02    0.1003097E-01    0.1348340E-01    0.1686732E-01    0.1905668E-01    0.1907282E-01    0.1687504E-01    0.1350642E-01