 TITLE = "NAVIER-STOKES OUTPUT"
 VARIABLES = "X", "Y", "U", "V", "P", "Pex", "Vor"
 ZONE I =   21, J =   21, DATAPACKING = BLOCK, VARLOCATION=(3=CELLCENTERED, 4=CELLCENTERED,5=CELLCENTERED,6=CELLCENTERED, 7=CELLCENTERED)
  0.0000000E+00    0.3141593E+00    0.6283185E+00    0.9424778E+00    0.1256637E+01    0.1570796E+01    0.1884956E+01    0.2199115E+01    0.2513274E+01    0.2827433E+01
  0.3141593E+01    0.3455752E+01    0.3769911E+01    0.4084071E+01    0.4398230E+01    0.4712389E+01    0.5026548E+01    0.5340708E+01    0.5654867E+01    0.5969026E+01
  0.6283185E+01    0.0000000E+00    0.3141593E+00    0.6283185E+00    0.9424778E+00    0.1256637E+01    0.1570796E+01    0.1884956E+01    0.2199115E+01    0.2513274E+01
  0.2827433E+01    0.3141593E+01    0.3455752E+01    0.3769911E+01    0.4084071E+01    0.4398230E+01    0.4712389E+01    0.5026548E+01    0.5340708E+01    0.5654867E+01
  0.5969026E+01    0.6283185E+01    0.0000000E+00    0.3141593E+00    0.6283185E+00    0.9424778E+00    0.1256637E+01    0.1570796E+01    0.1884956E+01    0.2199115E+01
  0.2513274E+01    0.2827433E+01    0.3141593E+01    0.3455752E+01    0.3769911E+01    0.4084071E+01    0.4398230E+01    0.4712389E+01    0.5026548E+01    0.5340708E+01
  0.5654867E+01    0.5969026E+01    0.6283185E+01    0.0000000E+00    0.3141593E+00    0.6283185E+00    0.9424778E+00    0.1256637E+01    0.1570796E+01    0.1884956E+01
  0.2199115E+01    0.2513274E+01    0.2827433E+01    0.3141593E+01    0.3455752E+01    0.3769911E+01    0.4084071E+01    0.4398230E+01    0.4712389E+01    0.5026548E+01
  0.5340708E+01    0.5654867E+01    0.5969026E+01    0.6283185E+01    0.0000000E+00    0.3141593E+00    0.6283185E+00    0.9424778E+00    0.1256637E+01    0.1570796E+01
  0.1884956E+01    0.2199115E+01    0.2513274E+01    0.2827433E+01    0.3141593E+01    0.3455752E+01    0.3769911E+01    0.4084071E+01    0.4398230E+01    0.4712389E+01
  0.5026548E+01    0.5340708E+01    0.5654867E+01    0.5969026E+01    0.6283185E+01    0.0000000E+00    0.3141593E+00    0.6283185E+00    0.9424778E+00    0.1256637E+01
  0.1570796E+01    0.1884956E+01    0.2199115E+01    0.2513274E+01    0.2827433E+01    0.3141593E+01    0.3455752E+01    0.3769911E+01    0.4084071E+01    0.4398230E+01
  0.4712389E+01    0.5026548E+01    0.5340708E+01    0.5654867E+01    0.5969026E+01    0.6283185E+01    0.0000000E+00    0.3141593E+00    0.6283185E+00    0.9424778E+00
  0.1256637E+01    0.1570796E+01    0.1884956E+01    0.2199115E+01    0.2513274E+01    0.2827433E+01    0.3141593E+01    0.3455752E+01    0.3769911E+01    0.4084071E+01
  0.4398230E+01    0.4712389E+01    0.5026548E+01    0.5340708E+01    0.5654867E+01    0.5969026E+01    0.6283185E+01    0.0000000E+00    0.3141593E+00    0.6283185E+00
  0.9424778E+00    0.1256637E+01    0.1570796E+01    0.1884956E+01    0.2199115E+01    0.2513274E+01    0.2827433E+01    0.3141593E+01    0.3455752E+01    0.3769911E+01
  0.4084071E+01    0.4398230E+01    0.4712389E+01    0.5026548E+01    0.5340708E+01    0.5654867E+01    0.5969026E+01    0.6283185E+01    0.0000000E+00    0.3141593E+00
  0.6283185E+00    0.9424778E+00    0.1256637E+01    0.1570796E+01    0.1884956E+01    0.2199115E+01    0.2513274E+01    0.2827433E+01    0.3141593E+01    0.3455752E+01
  0.3769911E+01    0.4084071E+01    0.4398230E+01    0.4712389E+01    0.5026548E+01    0.5340708E+01    0.5654867E+01    0.5969026E+01    0.6283185E+01    0.0000000E+00
  0.3141593E+00    0.6283185E+00    0.9424778E+00    0.1256637E+01    0.1570796E+01    0.1884956E+01    0.2199115E+01    0.2513274E+01    0.2827433E+01    0.3141593E+01
  0.3455752E+01    0.3769911E+01    0.4084071E+01    0.4398230E+01    0.4712389E+01    0.5026548E+01    0.5340708E+01    0.5654867E+01    0.5969026E+01    0.6283185E+01
  0.0000000E+00    0.3141593E+00    0.6283185E+00    0.9424778E+00    0.1256637E+01    0.1570796E+01    0.1884956E+01    0.2199115E+01    0.2513274E+01    0.2827433E+01
  0.3141593E+01    0.3455752E+01    0.3769911E+01    0.4084071E+01    0.4398230E+01    0.4712389E+01    0.5026548E+01    0.5340708E+01    0.5654867E+01    0.5969026E+01
  0.6283185E+01    0.0000000E+00    0.3141593E+00    0.6283185E+00    0.9424778E+00    0.1256637E+01    0.1570796E+01    0.1884956E+01    0.2199115E+01    0.2513274E+01
  0.2827433E+01    0.3141593E+01    0.3455752E+01    0.3769911E+01    0.4084071E+01    0.4398230E+01    0.4712389E+01    0.5026548E+01    0.5340708E+01    0.5654867E+01
  0.5969026E+01    0.6283185E+01    0.0000000E+00    0.3141593E+00    0.6283185E+00    0.9424778E+00    0.1256637E+01    0.1570796E+01    0.1884956E+01    0.2199115E+01
  0.2513274E+01    0.2827433E+01    0.3141593E+01    0.3455752E+01    0.3769911E+01    0.4084071E+01    0.4398230E+01    0.4712389E+01    0.5026548E+01    0.5340708E+01
  0.5654867E+01    0.5969026E+01    0.6283185E+01    0.0000000E+00    0.3141593E+00    0.6283185E+00    0.9424778E+00    0.1256637E+01    0.1570796E+01    0.1884956E+01
  0.2199115E+01    0.2513274E+01    0.2827433E+01    0.3141593E+01    0.3455752E+01    0.3769911E+01    0.4084071E+01    0.4398230E+01    0.4712389E+01    0.5026548E+01
  0.5340708E+01    0.5654867E+01    0.5969026E+01    0.6283185E+01    0.0000000E+00    0.3141593E+00    0.6283185E+00    0.9424778E+00    0.1256637E+01    0.1570796E+01
  0.1884956E+01    0.2199115E+01    0.2513274E+01    0.2827433E+01    0.3141593E+01    0.3455752E+01    0.3769911E+01    0.4084071E+01    0.4398230E+01    0.4712389E+01
  0.5026548E+01    0.5340708E+01    0.5654867E+01    0.5969026E+01    0.6283185E+01    0.0000000E+00    0.3141593E+00    0.6283185E+00    0.9424778E+00    0.1256637E+01
  0.1570796E+01    0.1884956E+01    0.2199115E+01    0.2513274E+01    0.2827433E+01    0.3141593E+01    0.3455752E+01    0.3769911E+01    0.4084071E+01    0.4398230E+01
  0.4712389E+01    0.5026548E+01    0.5340708E+01    0.5654867E+01    0.5969026E+01    0.6283185E+01    0.0000000E+00    0.3141593E+00    0.6283185E+00    0.9424778E+00
  0.1256637E+01    0.1570796E+01    0.1884956E+01    0.2199115E+01    0.2513274E+01    0.2827433E+01    0.3141593E+01    0.3455752E+01    0.3769911E+01    0.4084071E+01
  0.4398230E+01    0.4712389E+01    0.5026548E+01    0.5340708E+01    0.5654867E+01    0.5969026E+01    0.6283185E+01    0.0000000E+00    0.3141593E+00    0.6283185E+00
  0.9424778E+00    0.1256637E+01    0.1570796E+01    0.1884956E+01    0.2199115E+01    0.2513274E+01    0.2827433E+01    0.3141593E+01    0.3455752E+01    0.3769911E+01
  0.4084071E+01    0.4398230E+01    0.4712389E+01    0.5026548E+01    0.5340708E+01    0.5654867E+01    0.5969026E+01    0.6283185E+01    0.0000000E+00    0.3141593E+00
  0.6283185E+00    0.9424778E+00    0.1256637E+01    0.1570796E+01    0.1884956E+01    0.2199115E+01    0.2513274E+01    0.2827433E+01    0.3141593E+01    0.3455752E+01
  0.3769911E+01    0.4084071E+01    0.4398230E+01    0.4712389E+01    0.5026548E+01    0.5340708E+01    0.5654867E+01    0.5969026E+01    0.6283185E+01    0.0000000E+00
  0.3141593E+00    0.6283185E+00    0.9424778E+00    0.1256637E+01    0.1570796E+01    0.1884956E+01    0.2199115E+01    0.2513274E+01    0.2827433E+01    0.3141593E+01
  0.3455752E+01    0.3769911E+01    0.4084071E+01    0.4398230E+01    0.4712389E+01    0.5026548E+01    0.5340708E+01    0.5654867E+01    0.5969026E+01    0.6283185E+01
  0.0000000E+00    0.3141593E+00    0.6283185E+00    0.9424778E+00    0.1256637E+01    0.1570796E+01    0.1884956E+01    0.2199115E+01    0.2513274E+01    0.2827433E+01
  0.3141593E+01    0.3455752E+01    0.3769911E+01    0.4084071E+01    0.4398230E+01    0.4712389E+01    0.5026548E+01    0.5340708E+01    0.5654867E+01    0.5969026E+01
  0.6283185E+01    0.0000000E+00    0.0000000E+00    0.0000000E+00    0.0000000E+00    0.0000000E+00    0.0000000E+00    0.0000000E+00    0.0000000E+00    0.0000000E+00
  0.0000000E+00    0.0000000E+00    0.0000000E+00    0.0000000E+00    0.0000000E+00    0.0000000E+00    0.0000000E+00    0.0000000E+00    0.0000000E+00    0.0000000E+00
  0.0000000E+00    0.0000000E+00    0.3141593E+00    0.3141593E+00    0.3141593E+00    0.3141593E+00    0.3141593E+00    0.3141593E+00    0.3141593E+00    0.3141593E+00
  0.3141593E+00    0.3141593E+00    0.3141593E+00    0.3141593E+00    0.3141593E+00    0.3141593E+00    0.3141593E+00    0.3141593E+00    0.3141593E+00    0.3141593E+00
  0.3141593E+00    0.3141593E+00    0.3141593E+00    0.6283185E+00    0.6283185E+00    0.6283185E+00    0.6283185E+00    0.6283185E+00    0.6283185E+00    0.6283185E+00
  0.6283185E+00    0.6283185E+00    0.6283185E+00    0.6283185E+00    0.6283185E+00    0.6283185E+00    0.6283185E+00    0.6283185E+00    0.6283185E+00    0.6283185E+00
  0.6283185E+00    0.6283185E+00    0.6283185E+00    0.6283185E+00    0.9424778E+00    0.9424778E+00    0.9424778E+00    0.9424778E+00    0.9424778E+00    0.9424778E+00
  0.9424778E+00    0.9424778E+00    0.9424778E+00    0.9424778E+00    0.9424778E+00    0.9424778E+00    0.9424778E+00    0.9424778E+00    0.9424778E+00    0.9424778E+00
  0.9424778E+00    0.9424778E+00    0.9424778E+00    0.9424778E+00    0.9424778E+00    0.1256637E+01    0.1256637E+01    0.1256637E+01    0.1256637E+01    0.1256637E+01
  0.1256637E+01    0.1256637E+01    0.1256637E+01    0.1256637E+01    0.1256637E+01    0.1256637E+01    0.1256637E+01    0.1256637E+01    0.1256637E+01    0.1256637E+01
  0.1256637E+01    0.1256637E+01    0.1256637E+01    0.1256637E+01    0.1256637E+01    0.1256637E+01    0.1570796E+01    0.1570796E+01    0.1570796E+01    0.1570796E+01
  0.1570796E+01    0.1570796E+01    0.1570796E+01    0.1570796E+01    0.1570796E+01    0.1570796E+01    0.1570796E+01    0.1570796E+01    0.1570796E+01    0.1570796E+01
  0.1570796E+01    0.1570796E+01    0.1570796E+01    0.1570796E+01    0.1570796E+01    0.1570796E+01    0.1570796E+01    0.1884956E+01    0.1884956E+01    0.1884956E+01
  0.1884956E+01    0.1884956E+01    0.1884956E+01    0.1884956E+01    0.1884956E+01    0.1884956E+01    0.1884956E+01    0.1884956E+01    0.1884956E+01    0.1884956E+01
  0.1884956E+01    0.1884956E+01    0.1884956E+01    0.1884956E+01    0.1884956E+01    0.1884956E+01    0.1884956E+01    0.1884956E+01    0.2199115E+01    0.2199115E+01
  0.2199115E+01    0.2199115E+01    0.2199115E+01    0.2199115E+01    0.2199115E+01    0.2199115E+01    0.2199115E+01    0.2199115E+01    0.2199115E+01    0.2199115E+01
  0.2199115E+01    0.2199115E+01    0.2199115E+01    0.2199115E+01    0.2199115E+01    0.2199115E+01    0.2199115E+01    0.2199115E+01    0.2199115E+01    0.2513274E+01
  0.2513274E+01    0.2513274E+01    0.2513274E+01    0.2513274E+01    0.2513274E+01    0.2513274E+01    0.2513274E+01    0.2513274E+01    0.2513274E+01    0.2513274E+01
  0.2513274E+01    0.2513274E+01    0.2513274E+01    0.2513274E+01    0.2513274E+01    0.2513274E+01    0.2513274E+01    0.2513274E+01    0.2513274E+01    0.2513274E+01
  0.2827433E+01    0.2827433E+01    0.2827433E+01    0.2827433E+01    0.2827433E+01    0.2827433E+01    0.2827433E+01    0.2827433E+01    0.2827433E+01    0.2827433E+01
  0.2827433E+01    0.2827433E+01    0.2827433E+01    0.2827433E+01    0.2827433E+01    0.2827433E+01    0.2827433E+01    0.2827433E+01    0.2827433E+01    0.2827433E+01
  0.2827433E+01    0.3141593E+01    0.3141593E+01    0.3141593E+01    0.3141593E+01    0.3141593E+01    0.3141593E+01    0.3141593E+01    0.3141593E+01    0.3141593E+01
  0.3141593E+01    0.3141593E+01    0.3141593E+01    0.3141593E+01    0.3141593E+01    0.3141593E+01    0.3141593E+01    0.3141593E+01    0.3141593E+01    0.3141593E+01
  0.3141593E+01    0.3141593E+01    0.3455752E+01    0.3455752E+01    0.3455752E+01    0.3455752E+01    0.3455752E+01    0.3455752E+01    0.3455752E+01    0.3455752E+01
  0.3455752E+01    0.3455752E+01    0.3455752E+01    0.3455752E+01    0.3455752E+01    0.3455752E+01    0.3455752E+01    0.3455752E+01    0.3455752E+01    0.3455752E+01
  0.3455752E+01    0.3455752E+01    0.3455752E+01    0.3769911E+01    0.3769911E+01    0.3769911E+01    0.3769911E+01    0.3769911E+01    0.3769911E+01    0.3769911E+01
  0.3769911E+01    0.3769911E+01    0.3769911E+01    0.3769911E+01    0.3769911E+01    0.3769911E+01    0.3769911E+01    0.3769911E+01    0.3769911E+01    0.3769911E+01
  0.3769911E+01    0.3769911E+01    0.3769911E+01    0.3769911E+01    0.4084071E+01    0.4084071E+01    0.4084071E+01    0.4084071E+01    0.4084071E+01    0.4084071E+01
  0.4084071E+01    0.4084071E+01    0.4084071E+01    0.4084071E+01    0.4084071E+01    0.4084071E+01    0.4084071E+01    0.4084071E+01    0.4084071E+01    0.4084071E+01
  0.4084071E+01    0.4084071E+01    0.4084071E+01    0.4084071E+01    0.4084071E+01    0.4398230E+01    0.4398230E+01    0.4398230E+01    0.4398230E+01    0.4398230E+01
  0.4398230E+01    0.4398230E+01    0.4398230E+01    0.4398230E+01    0.4398230E+01    0.4398230E+01    0.4398230E+01    0.4398230E+01    0.4398230E+01    0.4398230E+01
  0.4398230E+01    0.4398230E+01    0.4398230E+01    0.4398230E+01    0.4398230E+01    0.4398230E+01    0.4712389E+01    0.4712389E+01    0.4712389E+01    0.4712389E+01
  0.4712389E+01    0.4712389E+01    0.4712389E+01    0.4712389E+01    0.4712389E+01    0.4712389E+01    0.4712389E+01    0.4712389E+01    0.4712389E+01    0.4712389E+01
  0.4712389E+01    0.4712389E+01    0.4712389E+01    0.4712389E+01    0.4712389E+01    0.4712389E+01    0.4712389E+01    0.5026548E+01    0.5026548E+01    0.5026548E+01
  0.5026548E+01    0.5026548E+01    0.5026548E+01    0.5026548E+01    0.5026548E+01    0.5026548E+01    0.5026548E+01    0.5026548E+01    0.5026548E+01    0.5026548E+01
  0.5026548E+01    0.5026548E+01    0.5026548E+01    0.5026548E+01    0.5026548E+01    0.5026548E+01    0.5026548E+01    0.5026548E+01    0.5340708E+01    0.5340708E+01
  0.5340708E+01    0.5340708E+01    0.5340708E+01    0.5340708E+01    0.5340708E+01    0.5340708E+01    0.5340708E+01    0.5340708E+01    0.5340708E+01    0.5340708E+01
  0.5340708E+01    0.5340708E+01    0.5340708E+01    0.5340708E+01    0.5340708E+01    0.5340708E+01    0.5340708E+01    0.5340708E+01    0.5340708E+01    0.5654867E+01
  0.5654867E+01    0.5654867E+01    0.5654867E+01    0.5654867E+01    0.5654867E+01    0.5654867E+01    0.5654867E+01    0.5654867E+01    0.5654867E+01    0.5654867E+01
  0.5654867E+01    0.5654867E+01    0.5654867E+01    0.5654867E+01    0.5654867E+01    0.5654867E+01    0.5654867E+01    0.5654867E+01    0.5654867E+01    0.5654867E+01
  0.5969026E+01    0.5969026E+01    0.5969026E+01    0.5969026E+01    0.5969026E+01    0.5969026E+01    0.5969026E+01    0.5969026E+01    0.5969026E+01    0.5969026E+01
  0.5969026E+01    0.5969026E+01    0.5969026E+01    0.5969026E+01    0.5969026E+01    0.5969026E+01    0.5969026E+01    0.5969026E+01    0.5969026E+01    0.5969026E+01
  0.5969026E+01    0.6283185E+01    0.6283185E+01    0.6283185E+01    0.6283185E+01    0.6283185E+01    0.6283185E+01    0.6283185E+01    0.6283185E+01    0.6283185E+01
  0.6283185E+01    0.6283185E+01    0.6283185E+01    0.6283185E+01    0.6283185E+01    0.6283185E+01    0.6283185E+01    0.6283185E+01    0.6283185E+01    0.6283185E+01
  0.6283185E+01    0.6283185E+01   -0.3523124E-02   -0.3178339E-02   -0.2522291E-02   -0.1619320E-02   -0.5580341E-03    0.5580460E-03    0.1619541E-02    0.2522303E-02
  0.3178625E-02    0.3522814E-02    0.3521925E-02    0.3177712E-02    0.2522044E-02    0.1619057E-02    0.5583370E-03   -0.5571990E-03   -0.1618892E-02   -0.2521230E-02
 -0.3176892E-02   -0.3522598E-02   -0.1022150E-01   -0.9220952E-02   -0.7317666E-02   -0.4698017E-02   -0.1618531E-02    0.1619456E-02    0.4698919E-02    0.7318358E-02
  0.9221521E-02    0.1022187E-01    0.1022158E-01    0.9221112E-02    0.7317938E-02    0.4698287E-02    0.1619109E-02   -0.1618656E-02   -0.4698244E-02   -0.7317509E-02
 -0.9220604E-02   -0.1022145E-01   -0.1591916E-01   -0.1436099E-01   -0.1139680E-01   -0.7316861E-02   -0.2520669E-02    0.2522300E-02    0.7318390E-02    0.1139809E-01
  0.1436216E-01    0.1592039E-01    0.1592019E-01    0.1436175E-01    0.1139746E-01    0.7317402E-02    0.2521261E-02   -0.2521670E-02   -0.7317927E-02   -0.1139765E-01
 -0.1436174E-01   -0.1592027E-01   -0.2005943E-01   -0.1809567E-01   -0.1436052E-01   -0.9219577E-02   -0.3176145E-02    0.3178243E-02    0.9221539E-02    0.1436215E-01
  0.1809703E-01    0.2006049E-01    0.2006022E-01    0.1809642E-01    0.1436118E-01    0.9220032E-02    0.3176540E-02   -0.3177909E-02   -0.9221453E-02   -0.1436215E-01
 -0.1809709E-01   -0.2006092E-01   -0.2223599E-01   -0.2005910E-01   -0.1591865E-01   -0.1021992E-01   -0.3520767E-02    0.3523062E-02    0.1022202E-01    0.1592038E-01
  0.2006045E-01    0.2223686E-01    0.2223653E-01    0.2005959E-01    0.1591900E-01    0.1022005E-01    0.3520808E-02   -0.3523155E-02   -0.1022235E-01   -0.1592081E-01
 -0.2006094E-01   -0.2223742E-01   -0.2223577E-01   -0.2005909E-01   -0.1591868E-01   -0.1021995E-01   -0.3520817E-02    0.3522961E-02    0.1022189E-01    0.1592019E-01
  0.2006016E-01    0.2223651E-01    0.2223611E-01    0.2005910E-01    0.1591852E-01    0.1021961E-01    0.3520363E-02   -0.3523521E-02   -0.1022265E-01   -0.1592112E-01
 -0.2006118E-01   -0.2223774E-01   -0.2005989E-01   -0.1809592E-01   -0.1436064E-01   -0.9219684E-02   -0.3176318E-02    0.3177963E-02    0.9221111E-02    0.1436154E-01
  0.1809621E-01    0.2005945E-01    0.2005901E-01    0.1809508E-01    0.1435982E-01    0.9218745E-02    0.3175336E-02   -0.3178985E-02   -0.9222340E-02   -0.1436290E-01
 -0.1809767E-01   -0.2006128E-01   -0.1592002E-01   -0.1436130E-01   -0.1139690E-01   -0.7316993E-02   -0.2520931E-02    0.2521835E-02    0.7317635E-02    0.1139705E-01
  0.1436083E-01    0.1591878E-01    0.1591839E-01    0.1435979E-01    0.1139543E-01    0.7315499E-02    0.2519481E-02   -0.2523317E-02   -0.7319231E-02   -0.1139870E-01
 -0.1436252E-01   -0.1592043E-01   -0.1022143E-01   -0.9220825E-02   -0.7317560E-02   -0.4698059E-02   -0.1618808E-02    0.1618790E-02    0.4697839E-02    0.7316902E-02
  0.9219653E-02    0.1021986E-01    0.1021955E-01    0.9218804E-02    0.7315596E-02    0.4696152E-02    0.1616936E-02   -0.1620611E-02   -0.4699681E-02   -0.7318808E-02
 -0.9221565E-02   -0.1022184E-01   -0.3523062E-02   -0.3177935E-02   -0.2521942E-02   -0.1619268E-02   -0.5582742E-03    0.5572781E-03    0.1618147E-02    0.2520440E-02
  0.3175976E-02    0.3520523E-02    0.3520276E-02    0.3175429E-02    0.2519646E-02    0.1617023E-02    0.5561314E-03   -0.5592999E-03   -0.1620205E-02   -0.2522466E-02
 -0.3177920E-02   -0.3522658E-02    0.3520848E-02    0.3176291E-02    0.2520613E-02    0.1618027E-02    0.5569236E-03   -0.5588099E-03   -0.1620007E-02   -0.2522742E-02
 -0.3178614E-02   -0.3523502E-02   -0.3523580E-02   -0.3178806E-02   -0.2523038E-02   -0.1620379E-02   -0.5591496E-03    0.5566391E-03    0.1617885E-02    0.2520755E-02
  0.3176761E-02    0.3521942E-02    0.1022053E-01    0.9219699E-02    0.7316442E-02    0.4696956E-02    0.1617579E-02   -0.1620256E-02   -0.4699576E-02   -0.7319010E-02
 -0.9222142E-02   -0.1022262E-01   -0.1022256E-01   -0.9221978E-02   -0.7318733E-02   -0.4699211E-02   -0.1619829E-02    0.1618100E-02    0.4697513E-02    0.7316980E-02
  0.9220238E-02    0.1022080E-01    0.1591862E-01    0.1436024E-01    0.1139597E-01    0.7316031E-02    0.2519811E-02   -0.2523116E-02   -0.7319170E-02   -0.1139894E-01
 -0.1436294E-01   -0.1592111E-01   -0.1592099E-01   -0.1436243E-01   -0.1139808E-01   -0.7318202E-02   -0.2521944E-02    0.2521090E-02    0.7317119E-02    0.1139696E-01
  0.1436107E-01    0.1591899E-01    0.2005907E-01    0.1809522E-01    0.1435993E-01    0.9218875E-02    0.3175353E-02   -0.3179054E-02   -0.9222389E-02   -0.1436304E-01
 -0.1809782E-01   -0.2006123E-01   -0.2006096E-01   -0.1809705E-01   -0.1436184E-01   -0.9220816E-02   -0.3177255E-02    0.3177133E-02    0.9220517E-02    0.1436129E-01
  0.1809613E-01    0.2005978E-01    0.2223641E-01    0.2005893E-01    0.1591814E-01    0.1021925E-01    0.3519994E-02   -0.3523879E-02   -0.1022284E-01   -0.1592122E-01
 -0.2006125E-01   -0.2223758E-01   -0.2223726E-01   -0.2006033E-01   -0.1591974E-01   -0.1022091E-01   -0.3521730E-02    0.3522224E-02    0.1022127E-01    0.1591960E-01
  0.2005967E-01    0.2223599E-01    0.2223537E-01    0.2005847E-01    0.1591793E-01    0.1021914E-01    0.3519958E-02   -0.3523785E-02   -0.1022265E-01   -0.1592099E-01
 -0.2006089E-01   -0.2223720E-01   -0.2223696E-01   -0.2005996E-01   -0.1591939E-01   -0.1022070E-01   -0.3521429E-02    0.3522463E-02    0.1022130E-01    0.1591969E-01
  0.2005956E-01    0.2223529E-01    0.2005848E-01    0.1809471E-01    0.1435953E-01    0.9218639E-02    0.3175347E-02   -0.3178781E-02   -0.9221820E-02   -0.1436220E-01
 -0.1809682E-01   -0.2006017E-01   -0.2005990E-01   -0.1809604E-01   -0.1436092E-01   -0.9219955E-02   -0.3176498E-02    0.3177727E-02    0.9220971E-02    0.1436153E-01
  0.1809613E-01    0.2005971E-01    0.1591906E-01    0.1435996E-01    0.1139552E-01    0.7315757E-02    0.2519900E-02   -0.2522640E-02   -0.7318224E-02   -0.1139754E-01
 -0.1436134E-01   -0.1591940E-01   -0.1591927E-01   -0.1436093E-01   -0.1139664E-01   -0.7316781E-02   -0.2520825E-02    0.2522078E-02    0.7317975E-02    0.1139730E-01
  0.1436122E-01    0.1591923E-01    0.1021923E-01    0.9218837E-02    0.7315850E-02    0.4696694E-02    0.1617726E-02   -0.1619571E-02   -0.4698286E-02   -0.7317227E-02
 -0.9219959E-02   -0.1022035E-01   -0.1022055E-01   -0.9220044E-02   -0.7316819E-02   -0.4697557E-02   -0.1618276E-02    0.1619538E-02    0.4698460E-02    0.7317559E-02
  0.9220387E-02    0.1021986E-01    0.3520078E-02    0.3175692E-02    0.2520133E-02    0.1617896E-02    0.5572366E-03   -0.5580180E-03   -0.1618513E-02   -0.2520650E-02
 -0.3176126E-02   -0.3520942E-02   -0.3521334E-02   -0.3176743E-02   -0.2520842E-02   -0.1618290E-02   -0.5574052E-03    0.5583903E-03    0.1619325E-02    0.2521491E-02
  0.3177417E-02    0.3522540E-02    0.3512538E-02    0.1021125E-01    0.1590910E-01    0.2004741E-01    0.2222180E-01    0.2221973E-01    0.2004059E-01    0.1589861E-01
  0.1019955E-01    0.3498103E-02   -0.3543974E-02   -0.1024213E-01   -0.1594023E-01   -0.2007834E-01   -0.2225205E-01   -0.2225098E-01   -0.2007230E-01   -0.1592940E-01
 -0.1023109E-01   -0.3531646E-02    0.3167736E-02    0.9210626E-02    0.1435036E-01    0.1808349E-01    0.2004486E-01    0.2004258E-01    0.1807676E-01    0.1434017E-01
  0.9198518E-02    0.3154553E-02   -0.3199410E-02   -0.9241901E-02   -0.1438159E-01   -0.1811458E-01   -0.2007575E-01   -0.2007394E-01   -0.1810836E-01   -0.1437151E-01
 -0.9230174E-02   -0.3186388E-02    0.2512136E-02    0.7307513E-02    0.1138602E-01    0.1434828E-01    0.1590439E-01    0.1590210E-01    0.1434170E-01    0.1137607E-01
  0.7295427E-02    0.2499053E-02   -0.2543534E-02   -0.7338774E-02   -0.1141721E-01   -0.1437940E-01   -0.1593551E-01   -0.1593345E-01   -0.1437320E-01   -0.1140753E-01
 -0.7326917E-02   -0.2530499E-02    0.1609623E-02    0.4688084E-02    0.7306113E-02    0.9207343E-02    0.1020568E-01    0.1020347E-01    0.9200989E-02    0.7296413E-02
  0.4676182E-02    0.1596648E-02   -0.1640802E-02   -0.4719201E-02   -0.7337173E-02   -0.9238398E-02   -0.1023677E-01   -0.1023471E-01   -0.9232380E-02   -0.7327804E-02
 -0.4707498E-02   -0.1627849E-02    0.5483138E-03    0.1608645E-02    0.2509899E-02    0.3163841E-02    0.3506511E-02    0.3504402E-02    0.3157756E-02    0.2500563E-02
  0.1597131E-02    0.5358005E-03   -0.5795281E-03   -0.1639675E-02   -0.2540868E-02   -0.3194801E-02   -0.3537511E-02   -0.3535557E-02   -0.3189023E-02   -0.2531840E-02
 -0.1628389E-02   -0.5669234E-03   -0.5673970E-03   -0.1629201E-02   -0.2533097E-02   -0.3190594E-02   -0.3537330E-02   -0.3539342E-02   -0.3196373E-02   -0.2541995E-02
 -0.1640288E-02   -0.5795190E-03    0.5364474E-03    0.1598349E-02    0.2502294E-02    0.3159802E-02    0.3506454E-02    0.3508346E-02    0.3165293E-02    0.2510847E-02
  0.1609153E-02    0.5484488E-03   -0.1628595E-02   -0.4708663E-02   -0.7329299E-02   -0.9234030E-02   -0.1023642E-01   -0.1023829E-01   -0.9239457E-02   -0.7337709E-02
 -0.4719159E-02   -0.1640172E-02    0.1597828E-02    0.4677939E-02    0.7298622E-02    0.9203321E-02    0.1020565E-01    0.1020744E-01    0.9208503E-02    0.7306729E-02
  0.4688232E-02    0.1609320E-02   -0.2531675E-02   -0.7328392E-02   -0.1140931E-01   -0.1437497E-01   -0.1593502E-01   -0.1593675E-01   -0.1438002E-01   -0.1141713E-01
 -0.7338155E-02   -0.2542405E-02    0.2500743E-02    0.7297598E-02    0.1137855E-01    0.1434422E-01    0.1590427E-01    0.1590591E-01    0.1434913E-01    0.1138626E-01
  0.7307273E-02    0.2511597E-02   -0.3187635E-02   -0.9231714E-02   -0.1437362E-01   -0.1811003E-01   -0.2007523E-01   -0.2007687E-01   -0.1811473E-01   -0.1438090E-01
 -0.9240890E-02   -0.3197797E-02    0.3156825E-02    0.9200891E-02    0.1434283E-01    0.1807930E-01    0.2004446E-01    0.2004607E-01    0.1808393E-01    0.1435006E-01
  0.9210068E-02    0.3166960E-02   -0.3532608E-02   -0.1023246E-01   -0.1593209E-01   -0.2007368E-01   -0.2225185E-01   -0.2225336E-01   -0.2007808E-01   -0.1593896E-01
 -0.1024109E-01   -0.3542263E-02    0.3501767E-02    0.1020156E-01    0.1590124E-01    0.2004284E-01    0.2222104E-01    0.2222258E-01    0.2004725E-01    0.1590814E-01
  0.1021035E-01    0.3511504E-02   -0.3533073E-02   -0.1023272E-01   -0.1593224E-01   -0.2007375E-01   -0.2225181E-01   -0.2225326E-01   -0.2007796E-01   -0.1593879E-01
 -0.1024092E-01   -0.3542170E-02    0.3501856E-02    0.1020159E-01    0.1590115E-01    0.2004274E-01    0.2222089E-01    0.2222230E-01    0.2004702E-01    0.1590789E-01
  0.1020998E-01    0.3511243E-02   -0.3188208E-02   -0.9232128E-02   -0.1437384E-01   -0.1811002E-01   -0.2007500E-01   -0.2007646E-01   -0.1811420E-01   -0.1438032E-01
 -0.9240360E-02   -0.3197359E-02    0.3157120E-02    0.9200990E-02    0.1434274E-01    0.1807902E-01    0.2004399E-01    0.2004547E-01    0.1808324E-01    0.1434929E-01
  0.9209299E-02    0.3166250E-02   -0.2532237E-02   -0.7328863E-02   -0.1140953E-01   -0.1437484E-01   -0.1593460E-01   -0.1593607E-01   -0.1437914E-01   -0.1141624E-01
 -0.7337310E-02   -0.2541671E-02    0.2501193E-02    0.7297773E-02    0.1137848E-01    0.1434378E-01    0.1590357E-01    0.1590507E-01    0.1434806E-01    0.1138515E-01
  0.7306270E-02    0.2510620E-02   -0.1629729E-02   -0.4709358E-02   -0.7329597E-02   -0.9233948E-02   -0.1023593E-01   -0.1023748E-01   -0.9238478E-02   -0.7336631E-02
 -0.4718143E-02   -0.1639394E-02    0.1598373E-02    0.4678160E-02    0.7298410E-02    0.9202803E-02    0.1020483E-01    0.1020629E-01    0.9207278E-02    0.7305459E-02
  0.4686903E-02    0.1608240E-02   -0.5680435E-03   -0.1629589E-02   -0.2533183E-02   -0.3190319E-02   -0.3536677E-02   -0.3538383E-02   -0.3195205E-02   -0.2540763E-02
 -0.1639177E-02   -0.5785961E-03    0.5370927E-03    0.1598597E-02    0.2502177E-02    0.3159299E-02    0.3505538E-02    0.3507216E-02    0.3164038E-02    0.2509491E-02
  0.1607921E-02    0.5473843E-03    0.5482137E-03    0.1608581E-02    0.2510015E-02    0.3164244E-02    0.3507202E-02    0.3505380E-02    0.3158944E-02    0.2501761E-02
  0.1598249E-02    0.5367564E-03   -0.5789044E-03   -0.1639356E-02   -0.2540876E-02   -0.3195298E-02   -0.3538335E-02   -0.3536558E-02   -0.3190241E-02   -0.2532983E-02
 -0.1629288E-02   -0.5676799E-03    0.1609213E-02    0.4687964E-02    0.7306158E-02    0.9207553E-02    0.1020614E-01    0.1020418E-01    0.9201860E-02    0.7297387E-02
  0.4677104E-02    0.1597378E-02   -0.1640213E-02   -0.4718849E-02   -0.7337221E-02   -0.9238754E-02   -0.1023746E-01   -0.1023571E-01   -0.9233317E-02   -0.7328650E-02
 -0.4708263E-02   -0.1628196E-02    0.2512471E-02    0.7307775E-02    0.1138613E-01    0.1434838E-01    0.1590462E-01    0.1590247E-01    0.1434228E-01    0.1137680E-01
  0.7296133E-02    0.2499815E-02   -0.2542871E-02   -0.7338438E-02   -0.1141707E-01   -0.1437957E-01   -0.1593618E-01   -0.1593416E-01   -0.1437381E-01   -0.1140822E-01
 -0.7327257E-02   -0.2530555E-02    0.3168726E-02    0.9211081E-02    0.1435030E-01    0.1808324E-01    0.2004462E-01    0.2004235E-01    0.1807682E-01    0.1434051E-01
  0.9198986E-02    0.3155568E-02   -0.3198639E-02   -0.9241547E-02   -0.1438127E-01   -0.1811463E-01   -0.2007640E-01   -0.2007440E-01   -0.1810861E-01   -0.1437190E-01
 -0.9229967E-02   -0.3185613E-02    0.3512874E-02    0.1021132E-01    0.1590833E-01    0.2004630E-01    0.2222089E-01    0.2221845E-01    0.2003970E-01    0.1589848E-01
  0.1019915E-01    0.3500397E-02   -0.3543030E-02   -0.1024214E-01   -0.1593998E-01   -0.2007788E-01   -0.2225312E-01   -0.2225151E-01   -0.2007152E-01   -0.1592997E-01
 -0.1023093E-01   -0.3529463E-02    0.3026090E-03    0.3256945E-03    0.3704557E-03    0.4136073E-03    0.3968386E-03    0.3829287E-03    0.3513664E-03    0.2631981E-03
  0.2037933E-03    0.1259430E-03    0.1009859E-03    0.1558665E-03    0.2336523E-03    0.2179323E-03    0.2700972E-03    0.3360475E-03    0.2663457E-03    0.2805101E-03
  0.3566799E-03    0.2981114E-03    0.3101816E-03    0.3200294E-03    0.3539711E-03    0.3870222E-03    0.3846102E-03    0.3722185E-03    0.3331018E-03    0.2643957E-03
  0.2127294E-03    0.1708212E-03    0.1382988E-03    0.1675717E-03    0.2389808E-03    0.2554552E-03    0.2851598E-03    0.3452572E-03    0.3171258E-03    0.3015370E-03
  0.3637485E-03    0.3528100E-03    0.3530649E-03    0.3472209E-03    0.3594457E-03    0.3915808E-03    0.3987415E-03    0.3740425E-03    0.3443070E-03    0.2888857E-03
  0.2274918E-03    0.2103377E-03    0.1914512E-03    0.1915278E-03    0.2670692E-03    0.3077871E-03    0.3076696E-03    0.3725686E-03    0.3763943E-03    0.3225006E-03
  0.3901585E-03    0.4192655E-03    0.3945901E-03    0.3812725E-03    0.3933915E-03    0.4274594E-03    0.4213208E-03    0.4021737E-03    0.3813062E-03    0.3118594E-03
  0.2614474E-03    0.2613743E-03    0.2281588E-03    0.2312033E-03    0.3177347E-03    0.3392080E-03    0.3431055E-03    0.4245526E-03    0.4029180E-03    0.3539852E-03