 TITLE = "NAVIER-STOKES OUTPUT"
 VARIABLES = "X", "Y", "U", "V", "P", "Pex", "Vor"
 ZONE I =   21, J =   21, DATAPACKING = BLOCK, VARLOCATION=(3=CELLCENTERED, 4=CELLCENTERED,5=CELLCENTERED,6=CELLCENTERED, 7=CELLCENTERED)
  0.0000000E+00    0.3141593E+00    0.6283185E+00    0.9424778E+00    0.1256637E+01    0.1570796E+01    0.1884956E+01    0.2199115E+01    0.2513274E+01    0.2827433E+01
  0.3141593E+01    0.3455752E+01    0.3769911E+01    0.4084071E+01    0.4398230E+01    0.4712389E+01    0.5026548E+01    0.5340708E+01    0.5654867E+01    0.5969026E+01
  0.6283185E+01    0.0000000E+00    0.3141593E+00    0.6283185E+00    0.9424778E+00    0.1256637E+01    0.1570796E+01    0.1884956E+01    0.2199115E+01    0.2513274E+01
  0.2827433E+01    0.3141593E+01    0.3455752E+01    0.3769911E+01    0.4084071E+01    0.4398230E+01    0.4712389E+01    0.5026548E+01    0.5340708E+01    0.5654867E+01
  0.5969026E+01    0.6283185E+01    0.0000000E+00    0.3141593E+00    0.6283185E+00    0.9424778E+00    0.1256637E+01    0.1570796E+01    0.1884956E+01    0.2199115E+01
  0.2513274E+01    0.2827433E+01    0.3141593E+01    0.3455752E+01    0.3769911E+01    0.4084071E+01    0.4398230E+01    0.4712389E+01    0.5026548E+01    0.5340708E+01
  0.5654867E+01    0.5969026E+01    0.6283185E+01    0.0000000E+00    0.3141593E+00    0.6283185E+00    0.9424778E+00    0.1256637E+01    0.1570796E+01    0.1884956E+01
  0.2199115E+01    0.2513274E+01    0.2827433E+01    0.3141593E+01    0.3455752E+01    0.3769911E+01    0.4084071E+01    0.4398230E+01    0.4712389E+01    0.5026548E+01
  0.5340708E+01    0.5654867E+01    0.5969026E+01    0.6283185E+01    0.0000000E+00    0.3141593E+00    0.6283185E+00    0.9424778E+00    0.1256637E+01    0.1570796E+01
  0.1884956E+01    0.2199115E+01    0.2513274E+01    0.2827433E+01    0.3141593E+01    0.3455752E+01    0.3769911E+01    0.4084071E+01    0.4398230E+01    0.4712389E+01
  0.5026548E+01    0.5340708E+01    0.5654867E+01    0.5969026E+01    0.6283185E+01    0.0000000E+00    0.3141593E+00    0.6283185E+00    0.9424778E+00    0.1256637E+01
  0.1570796E+01    0.1884956E+01    0.2199115E+01    0.2513274E+01    0.2827433E+01    0.3141593E+01    0.3455752E+01    0.3769911E+01    0.4084071E+01    0.4398230E+01
  0.4712389E+01    0.5026548E+01    0.5340708E+01    0.5654867E+01    0.5969026E+01    0.6283185E+01    0.0000000E+00    0.3141593E+00    0.6283185E+00    0.9424778E+00
  0.1256637E+01    0.1570796E+01    0.1884956E+01    0.2199115E+01    0.2513274E+01    0.2827433E+01    0.3141593E+01    0.3455752E+01    0.3769911E+01    0.4084071E+01
  0.4398230E+01    0.4712389E+01    0.5026548E+01    0.5340708E+01    0.5654867E+01    0.5969026E+01    0.6283185E+01    0.0000000E+00    0.3141593E+00    0.6283185E+00
  0.9424778E+00    0.1256637E+01    0.1570796E+01    0.1884956E+01    0.2199115E+01    0.2513274E+01    0.2827433E+01    0.3141593E+01    0.3455752E+01    0.3769911E+01
  0.4084071E+01    0.4398230E+01    0.4712389E+01    0.5026548E+01    0.5340708E+01    0.5654867E+01    0.5969026E+01    0.6283185E+01    0.0000000E+00    0.3141593E+00
  0.6283185E+00    0.9424778E+00    0.1256637E+01    0.1570796E+01    0.1884956E+01    0.2199115E+01    0.2513274E+01    0.2827433E+01    0.3141593E+01    0.3455752E+01
  0.3769911E+01    0.4084071E+01    0.4398230E+01    0.4712389E+01    0.5026548E+01    0.5340708E+01    0.5654867E+01    0.5969026E+01    0.6283185E+01    0.0000000E+00
  0.3141593E+00    0.6283185E+00    0.9424778E+00    0.1256637E+01    0.1570796E+01    0.1884956E+01    0.2199115E+01    0.2513274E+01    0.2827433E+01    0.3141593E+01
  0.3455752E+01    0.3769911E+01    0.4084071E+01    0.4398230E+01    0.4712389E+01    0.5026548E+01    0.5340708E+01    0.5654867E+01    0.5969026E+01    0.6283185E+01
  0.0000000E+00    0.3141593E+00    0.6283185E+00    0.9424778E+00    0.1256637E+01    0.1570796E+01    0.1884956E+01    0.2199115E+01    0.2513274E+01    0.2827433E+01
  0.3141593E+01    0.3455752E+01    0.3769911E+01    0.4084071E+01    0.4398230E+01    0.4712389E+01    0.5026548E+01    0.5340708E+01    0.5654867E+01    0.5969026E+01
  0.6283185E+01    0.0000000E+00    0.3141593E+00    0.6283185E+00    0.9424778E+00    0.1256637E+01    0.1570796E+01    0.1884956E+01    0.2199115E+01    0.2513274E+01
  0.2827433E+01    0.3141593E+01    0.3455752E+01    0.3769911E+01    0.4084071E+01    0.4398230E+01    0.4712389E+01    0.5026548E+01    0.5340708E+01    0.5654867E+01
  0.5969026E+01    0.6283185E+01    0.0000000E+00    0.3141593E+00    0.6283185E+00    0.9424778E+00    0.1256637E+01    0.1570796E+01    0.1884956E+01    0.2199115E+01
  0.2513274E+01    0.2827433E+01    0.3141593E+01    0.3455752E+01    0.3769911E+01    0.4084071E+01    0.4398230E+01    0.4712389E+01    0.5026548E+01    0.5340708E+01
  0.5654867E+01    0.5969026E+01    0.6283185E+01    0.0000000E+00    0.3141593E+00    0.6283185E+00    0.9424778E+00    0.1256637E+01    0.1570796E+01    0.1884956E+01
  0.2199115E+01    0.2513274E+01    0.2827433E+01    0.3141593E+01    0.3455752E+01    0.3769911E+01    0.4084071E+01    0.4398230E+01    0.4712389E+01    0.5026548E+01
  0.5340708E+01    0.5654867E+01    0.5969026E+01    0.6283185E+01    0.0000000E+00    0.3141593E+00    0.6283185E+00    0.9424778E+00    0.1256637E+01    0.1570796E+01
  0.1884956E+01    0.2199115E+01    0.2513274E+01    0.2827433E+01    0.3141593E+01    0.3455752E+01    0.3769911E+01    0.4084071E+01    0.4398230E+01    0.4712389E+01
  0.5026548E+01    0.5340708E+01    0.5654867E+01    0.5969026E+01    0.6283185E+01    0.0000000E+00    0.3141593E+00    0.6283185E+00    0.9424778E+00    0.1256637E+01
  0.1570796E+01    0.1884956E+01    0.2199115E+01    0.2513274E+01    0.2827433E+01    0.3141593E+01    0.3455752E+01    0.3769911E+01    0.4084071E+01    0.4398230E+01
  0.4712389E+01    0.5026548E+01    0.5340708E+01    0.5654867E+01    0.5969026E+01    0.6283185E+01    0.0000000E+00    0.3141593E+00    0.6283185E+00    0.9424778E+00
  0.1256637E+01    0.1570796E+01    0.1884956E+01    0.2199115E+01    0.2513274E+01    0.2827433E+01    0.3141593E+01    0.3455752E+01    0.3769911E+01    0.4084071E+01
  0.4398230E+01    0.4712389E+01    0.5026548E+01    0.5340708E+01    0.5654867E+01    0.5969026E+01    0.6283185E+01    0.0000000E+00    0.3141593E+00    0.6283185E+00
  0.9424778E+00    0.1256637E+01    0.1570796E+01    0.1884956E+01    0.2199115E+01    0.2513274E+01    0.2827433E+01    0.3141593E+01    0.3455752E+01    0.3769911E+01
  0.4084071E+01    0.4398230E+01    0.4712389E+01    0.5026548E+01    0.5340708E+01    0.5654867E+01    0.5969026E+01    0.6283185E+01    0.0000000E+00    0.3141593E+00
  0.6283185E+00    0.9424778E+00    0.1256637E+01    0.1570796E+01    0.1884956E+01    0.2199115E+01    0.2513274E+01    0.2827433E+01    0.3141593E+01    0.3455752E+01
  0.3769911E+01    0.4084071E+01    0.4398230E+01    0.4712389E+01    0.5026548E+01    0.5340708E+01    0.5654867E+01    0.5969026E+01    0.6283185E+01    0.0000000E+00
  0.3141593E+00    0.6283185E+00    0.9424778E+00    0.1256637E+01    0.1570796E+01    0.1884956E+01    0.2199115E+01    0.2513274E+01    0.2827433E+01    0.3141593E+01
  0.3455752E+01    0.3769911E+01    0.4084071E+01    0.4398230E+01    0.4712389E+01    0.5026548E+01    0.5340708E+01    0.5654867E+01    0.5969026E+01    0.6283185E+01
  0.0000000E+00    0.3141593E+00    0.6283185E+00    0.9424778E+00    0.1256637E+01    0.1570796E+01    0.1884956E+01    0.2199115E+01    0.2513274E+01    0.2827433E+01
  0.3141593E+01    0.3455752E+01    0.3769911E+01    0.4084071E+01    0.4398230E+01    0.4712389E+01    0.5026548E+01    0.5340708E+01    0.5654867E+01    0.5969026E+01
  0.6283185E+01    0.0000000E+00    0.0000000E+00    0.0000000E+00    0.0000000E+00    0.0000000E+00    0.0000000E+00    0.0000000E+00    0.0000000E+00    0.0000000E+00
  0.0000000E+00    0.0000000E+00    0.0000000E+00    0.0000000E+00    0.0000000E+00    0.0000000E+00    0.0000000E+00    0.0000000E+00    0.0000000E+00    0.0000000E+00
  0.0000000E+00    0.0000000E+00    0.3141593E+00    0.3141593E+00    0.3141593E+00    0.3141593E+00    0.3141593E+00    0.3141593E+00    0.3141593E+00    0.3141593E+00
  0.3141593E+00    0.3141593E+00    0.3141593E+00    0.3141593E+00    0.3141593E+00    0.3141593E+00    0.3141593E+00    0.3141593E+00    0.3141593E+00    0.3141593E+00
  0.3141593E+00    0.3141593E+00    0.3141593E+00    0.6283185E+00    0.6283185E+00    0.6283185E+00    0.6283185E+00    0.6283185E+00    0.6283185E+00    0.6283185E+00
  0.6283185E+00    0.6283185E+00    0.6283185E+00    0.6283185E+00    0.6283185E+00    0.6283185E+00    0.6283185E+00    0.6283185E+00    0.6283185E+00    0.6283185E+00
  0.6283185E+00    0.6283185E+00    0.6283185E+00    0.6283185E+00    0.9424778E+00    0.9424778E+00    0.9424778E+00    0.9424778E+00    0.9424778E+00    0.9424778E+00
  0.9424778E+00    0.9424778E+00    0.9424778E+00    0.9424778E+00    0.9424778E+00    0.9424778E+00    0.9424778E+00    0.9424778E+00    0.9424778E+00    0.9424778E+00
  0.9424778E+00    0.9424778E+00    0.9424778E+00    0.9424778E+00    0.9424778E+00    0.1256637E+01    0.1256637E+01    0.1256637E+01    0.1256637E+01    0.1256637E+01
  0.1256637E+01    0.1256637E+01    0.1256637E+01    0.1256637E+01    0.1256637E+01    0.1256637E+01    0.1256637E+01    0.1256637E+01    0.1256637E+01    0.1256637E+01
  0.1256637E+01    0.1256637E+01    0.1256637E+01    0.1256637E+01    0.1256637E+01    0.1256637E+01    0.1570796E+01    0.1570796E+01    0.1570796E+01    0.1570796E+01
  0.1570796E+01    0.1570796E+01    0.1570796E+01    0.1570796E+01    0.1570796E+01    0.1570796E+01    0.1570796E+01    0.1570796E+01    0.1570796E+01    0.1570796E+01
  0.1570796E+01    0.1570796E+01    0.1570796E+01    0.1570796E+01    0.1570796E+01    0.1570796E+01    0.1570796E+01    0.1884956E+01    0.1884956E+01    0.1884956E+01
  0.1884956E+01    0.1884956E+01    0.1884956E+01    0.1884956E+01    0.1884956E+01    0.1884956E+01    0.1884956E+01    0.1884956E+01    0.1884956E+01    0.1884956E+01
  0.1884956E+01    0.1884956E+01    0.1884956E+01    0.1884956E+01    0.1884956E+01    0.1884956E+01    0.1884956E+01    0.1884956E+01    0.2199115E+01    0.2199115E+01
  0.2199115E+01    0.2199115E+01    0.2199115E+01    0.2199115E+01    0.2199115E+01    0.2199115E+01    0.2199115E+01    0.2199115E+01    0.2199115E+01    0.2199115E+01
  0.2199115E+01    0.2199115E+01    0.2199115E+01    0.2199115E+01    0.2199115E+01    0.2199115E+01    0.2199115E+01    0.2199115E+01    0.2199115E+01    0.2513274E+01
  0.2513274E+01    0.2513274E+01    0.2513274E+01    0.2513274E+01    0.2513274E+01    0.2513274E+01    0.2513274E+01    0.2513274E+01    0.2513274E+01    0.2513274E+01
  0.2513274E+01    0.2513274E+01    0.2513274E+01    0.2513274E+01    0.2513274E+01    0.2513274E+01    0.2513274E+01    0.2513274E+01    0.2513274E+01    0.2513274E+01
  0.2827433E+01    0.2827433E+01    0.2827433E+01    0.2827433E+01    0.2827433E+01    0.2827433E+01    0.2827433E+01    0.2827433E+01    0.2827433E+01    0.2827433E+01
  0.2827433E+01    0.2827433E+01    0.2827433E+01    0.2827433E+01    0.2827433E+01    0.2827433E+01    0.2827433E+01    0.2827433E+01    0.2827433E+01    0.2827433E+01
  0.2827433E+01    0.3141593E+01    0.3141593E+01    0.3141593E+01    0.3141593E+01    0.3141593E+01    0.3141593E+01    0.3141593E+01    0.3141593E+01    0.3141593E+01
  0.3141593E+01    0.3141593E+01    0.3141593E+01    0.3141593E+01    0.3141593E+01    0.3141593E+01    0.3141593E+01    0.3141593E+01    0.3141593E+01    0.3141593E+01
  0.3141593E+01    0.3141593E+01    0.3455752E+01    0.3455752E+01    0.3455752E+01    0.3455752E+01    0.3455752E+01    0.3455752E+01    0.3455752E+01    0.3455752E+01
  0.3455752E+01    0.3455752E+01    0.3455752E+01    0.3455752E+01    0.3455752E+01    0.3455752E+01    0.3455752E+01    0.3455752E+01    0.3455752E+01    0.3455752E+01
  0.3455752E+01    0.3455752E+01    0.3455752E+01    0.3769911E+01    0.3769911E+01    0.3769911E+01    0.3769911E+01    0.3769911E+01    0.3769911E+01    0.3769911E+01
  0.3769911E+01    0.3769911E+01    0.3769911E+01    0.3769911E+01    0.3769911E+01    0.3769911E+01    0.3769911E+01    0.3769911E+01    0.3769911E+01    0.3769911E+01
  0.3769911E+01    0.3769911E+01    0.3769911E+01    0.3769911E+01    0.4084071E+01    0.4084071E+01    0.4084071E+01    0.4084071E+01    0.4084071E+01    0.4084071E+01
  0.4084071E+01    0.4084071E+01    0.4084071E+01    0.4084071E+01    0.4084071E+01    0.4084071E+01    0.4084071E+01    0.4084071E+01    0.4084071E+01    0.4084071E+01
  0.4084071E+01    0.4084071E+01    0.4084071E+01    0.4084071E+01    0.4084071E+01    0.4398230E+01    0.4398230E+01    0.4398230E+01    0.4398230E+01    0.4398230E+01
  0.4398230E+01    0.4398230E+01    0.4398230E+01    0.4398230E+01    0.4398230E+01    0.4398230E+01    0.4398230E+01    0.4398230E+01    0.4398230E+01    0.4398230E+01
  0.4398230E+01    0.4398230E+01    0.4398230E+01    0.4398230E+01    0.4398230E+01    0.4398230E+01    0.4712389E+01    0.4712389E+01    0.4712389E+01    0.4712389E+01
  0.4712389E+01    0.4712389E+01    0.4712389E+01    0.4712389E+01    0.4712389E+01    0.4712389E+01    0.4712389E+01    0.4712389E+01    0.4712389E+01    0.4712389E+01
  0.4712389E+01    0.4712389E+01    0.4712389E+01    0.4712389E+01    0.4712389E+01    0.4712389E+01    0.4712389E+01    0.5026548E+01    0.5026548E+01    0.5026548E+01
  0.5026548E+01    0.5026548E+01    0.5026548E+01    0.5026548E+01    0.5026548E+01    0.5026548E+01    0.5026548E+01    0.5026548E+01    0.5026548E+01    0.5026548E+01
  0.5026548E+01    0.5026548E+01    0.5026548E+01    0.5026548E+01    0.5026548E+01    0.5026548E+01    0.5026548E+01    0.5026548E+01    0.5340708E+01    0.5340708E+01
  0.5340708E+01    0.5340708E+01    0.5340708E+01    0.5340708E+01    0.5340708E+01    0.5340708E+01    0.5340708E+01    0.5340708E+01    0.5340708E+01    0.5340708E+01
  0.5340708E+01    0.5340708E+01    0.5340708E+01    0.5340708E+01    0.5340708E+01    0.5340708E+01    0.5340708E+01    0.5340708E+01    0.5340708E+01    0.5654867E+01
  0.5654867E+01    0.5654867E+01    0.5654867E+01    0.5654867E+01    0.5654867E+01    0.5654867E+01    0.5654867E+01    0.5654867E+01    0.5654867E+01    0.5654867E+01
  0.5654867E+01    0.5654867E+01    0.5654867E+01    0.5654867E+01    0.5654867E+01    0.5654867E+01    0.5654867E+01    0.5654867E+01    0.5654867E+01    0.5654867E+01
  0.5969026E+01    0.5969026E+01    0.5969026E+01    0.5969026E+01    0.5969026E+01    0.5969026E+01    0.5969026E+01    0.5969026E+01    0.5969026E+01    0.5969026E+01
  0.5969026E+01    0.5969026E+01    0.5969026E+01    0.5969026E+01    0.5969026E+01    0.5969026E+01    0.5969026E+01    0.5969026E+01    0.5969026E+01    0.5969026E+01
  0.5969026E+01    0.6283185E+01    0.6283185E+01    0.6283185E+01    0.6283185E+01    0.6283185E+01    0.6283185E+01    0.6283185E+01    0.6283185E+01    0.6283185E+01
  0.6283185E+01    0.6283185E+01    0.6283185E+01    0.6283185E+01    0.6283185E+01    0.6283185E+01    0.6283185E+01    0.6283185E+01    0.6283185E+01    0.6283185E+01
  0.6283185E+01    0.6283185E+01   -0.1901143E-01   -0.1715061E-01   -0.1361085E-01   -0.8738582E-02   -0.3010511E-02    0.3012634E-02    0.8741443E-02    0.1361539E-01
  0.1715638E-01    0.1901368E-01    0.1900995E-01    0.1714932E-01    0.1361021E-01    0.8738707E-02    0.3010773E-02   -0.3012175E-02   -0.8739936E-02   -0.1361301E-01
 -0.1715369E-01   -0.1901447E-01   -0.5517427E-01   -0.4977269E-01   -0.3949882E-01   -0.2535820E-01   -0.8734833E-02    0.8744118E-02    0.2536779E-01    0.3950871E-01
  0.4978126E-01    0.5517740E-01    0.5517236E-01    0.4976998E-01    0.3949688E-01    0.2535753E-01    0.8735348E-02   -0.8742303E-02   -0.2536435E-01   -0.3950411E-01
 -0.4977713E-01   -0.5517748E-01   -0.8593633E-01   -0.7752273E-01   -0.6152049E-01   -0.3949583E-01   -0.1360454E-01    0.1361901E-01    0.3950985E-01    0.6153314E-01
  0.7753211E-01    0.8593964E-01    0.8593472E-01    0.7751991E-01    0.6151804E-01    0.3949460E-01    0.1360498E-01   -0.1361676E-01   -0.3950598E-01   -0.6152836E-01
 -0.7752819E-01   -0.8593913E-01   -0.1082856E+00   -0.9768410E-01   -0.7752019E-01   -0.4976762E-01   -0.1714296E-01    0.1716023E-01    0.4978378E-01    0.7753390E-01
  0.9769366E-01    0.1082893E+00    0.1082847E+00    0.9768166E-01    0.7751759E-01    0.4976599E-01    0.1714305E-01   -0.1715833E-01   -0.4978049E-01   -0.7752998E-01
 -0.9769073E-01   -0.1082890E+00   -0.1200358E+00   -0.1082838E+00   -0.8593189E-01   -0.5516804E-01   -0.1900357E-01    0.1902137E-01    0.5518435E-01    0.8594521E-01
  0.1082925E+00    0.1200387E+00    0.1200346E+00    0.1082812E+00    0.8592909E-01    0.5516603E-01    0.1900307E-01   -0.1902031E-01   -0.5518213E-01   -0.8594267E-01
 -0.1082911E+00   -0.1200395E+00   -0.1200361E+00   -0.1082839E+00   -0.8593201E-01   -0.5516828E-01   -0.1900408E-01    0.1902053E-01    0.5518320E-01    0.8594381E-01
  0.1082912E+00    0.1200378E+00    0.1200341E+00    0.1082810E+00    0.8592897E-01    0.5516583E-01    0.1900283E-01   -0.1902049E-01   -0.5518229E-01   -0.8594270E-01
 -0.1082908E+00   -0.1200390E+00   -0.1082855E+00   -0.9768406E-01   -0.7752034E-01   -0.4976819E-01   -0.1714421E-01    0.1715805E-01    0.4978057E-01    0.7752993E-01
  0.9768979E-01    0.1082867E+00    0.1082836E+00    0.9768115E-01    0.7751709E-01    0.4976529E-01    0.1714225E-01   -0.1715908E-01   -0.4978103E-01   -0.7753024E-01
 -0.9769071E-01   -0.1082887E+00   -0.8593605E-01   -0.7752251E-01   -0.6152042E-01   -0.3949623E-01   -0.1360582E-01    0.1361636E-01    0.3950548E-01    0.6152729E-01
  0.7752606E-01    0.8593572E-01    0.8593329E-01    0.7751912E-01    0.6151686E-01    0.3949299E-01    0.1360324E-01   -0.1361834E-01   -0.3950708E-01   -0.6152894E-01
 -0.7752843E-01   -0.8593931E-01   -0.5517459E-01   -0.4977231E-01   -0.3949818E-01   -0.2535779E-01   -0.8735281E-02    0.8742214E-02    0.2536377E-01    0.3950227E-01
  0.4977378E-01    0.5517284E-01    0.5517102E-01    0.4976865E-01    0.3949455E-01    0.2535435E-01    0.8732250E-02   -0.8744826E-02   -0.2536623E-01   -0.3950481E-01
 -0.4977665E-01   -0.5517630E-01   -0.1901087E-01   -0.1714949E-01   -0.1360926E-01   -0.8736887E-02   -0.3009326E-02    0.3012723E-02    0.8739613E-02    0.1361081E-01
  0.1714953E-01    0.1900925E-01    0.1900808E-01    0.1714623E-01    0.1360580E-01    0.8733441E-02    0.3006140E-02   -0.3015757E-02   -0.8742690E-02   -0.1361394E-01
 -0.1715288E-01   -0.1901280E-01    0.1901253E-01    0.1715161E-01    0.1361177E-01    0.8739402E-02    0.3011453E-02   -0.3011457E-02   -0.8739778E-02   -0.1361273E-01
 -0.1715337E-01   -0.1901510E-01   -0.1901560E-01   -0.1715488E-01   -0.1361508E-01   -0.8742645E-02   -0.3014642E-02    0.3008202E-02    0.8736396E-02    0.1360909E-01
  0.1714922E-01    0.1901025E-01    0.5517451E-01    0.4977379E-01    0.3950047E-01    0.2536032E-01    0.8737502E-02   -0.8740745E-02   -0.2536354E-01   -0.3950376E-01
 -0.4977717E-01   -0.5517814E-01   -0.5517809E-01   -0.4977691E-01   -0.3950338E-01   -0.2536326E-01   -0.8740564E-02    0.8737535E-02    0.2536004E-01    0.3949999E-01
  0.4977327E-01    0.5517412E-01    0.8593741E-01    0.7752434E-01    0.6152273E-01    0.3949875E-01    0.1360823E-01   -0.1361447E-01   -0.3950468E-01   -0.6152797E-01
 -0.7752848E-01   -0.8594013E-01   -0.8593945E-01   -0.7752650E-01   -0.6152503E-01   -0.3950127E-01   -0.1361097E-01    0.1361132E-01    0.3950108E-01    0.6152421E-01
  0.7752474E-01    0.8593677E-01    0.1082865E+00    0.9768555E-01    0.7752238E-01    0.4977058E-01    0.1714672E-01   -0.1715577E-01   -0.4977903E-01   -0.7752957E-01
 -0.9769102E-01   -0.1082898E+00   -0.1082885E+00   -0.9768737E-01   -0.7752417E-01   -0.4977255E-01   -0.1714918E-01    0.1715268E-01    0.4977544E-01    0.7752560E-01
  0.9768672E-01    0.1082852E+00    0.1200353E+00    0.1082845E+00    0.8593349E-01    0.5517036E-01    0.1900650E-01   -0.1901800E-01   -0.5518094E-01   -0.8594241E-01
 -0.1082911E+00   -0.1200395E+00   -0.1200377E+00   -0.1082859E+00   -0.8593460E-01   -0.5517183E-01   -0.1900866E-01    0.1901510E-01    0.5517731E-01    0.8593840E-01
  0.1082873E+00    0.1200362E+00    0.1200365E+00    0.1082845E+00    0.8593293E-01    0.5516953E-01    0.1900557E-01   -0.1901889E-01   -0.5518174E-01   -0.8594289E-01
 -0.1082911E+00   -0.1200391E+00   -0.1200368E+00   -0.1082846E+00   -0.8593320E-01   -0.5517042E-01   -0.1900732E-01    0.1901604E-01    0.5517796E-01    0.8593890E-01
  0.1082875E+00    0.1200365E+00    0.1082855E+00    0.9768395E-01    0.7752033E-01    0.4976817E-01    0.1714413E-01   -0.1715828E-01   -0.4978115E-01   -0.7753088E-01
 -0.9769116E-01   -0.1082885E+00   -0.1082858E+00   -0.9768368E-01   -0.7752004E-01   -0.4976846E-01   -0.1714559E-01    0.1715546E-01    0.4977737E-01    0.7752658E-01
  0.9768673E-01    0.1082844E+00    0.8593436E-01    0.7752156E-01    0.6151965E-01    0.3949529E-01    0.1360455E-01   -0.1361804E-01   -0.3950759E-01   -0.6152971E-01
 -0.7752854E-01   -0.8593801E-01   -0.8593529E-01   -0.7752093E-01   -0.6151876E-01   -0.3949517E-01   -0.1360570E-01    0.1361551E-01    0.3950393E-01    0.6152559E-01
  0.7752486E-01    0.8593550E-01    0.5517484E-01    0.4977215E-01    0.3949759E-01    0.2535665E-01    0.8733604E-02   -0.8744336E-02   -0.2536640E-01   -0.3950520E-01
 -0.4977661E-01   -0.5517547E-01   -0.5517307E-01   -0.4977011E-01   -0.3949622E-01   -0.2535626E-01   -0.8734214E-02    0.8742171E-02    0.2536318E-01    0.3950193E-01
  0.4977350E-01    0.5517378E-01    0.1901212E-01    0.1714996E-01    0.1360925E-01    0.8736309E-02    0.3008394E-02   -0.3013888E-02   -0.8741176E-02   -0.1361245E-01
 -0.1715125E-01   -0.1901178E-01   -0.1901072E-01   -0.1714842E-01   -0.1360841E-01   -0.8735937E-02   -0.3008467E-02    0.3012515E-02    0.8739406E-02    0.1361077E-01
  0.1714835E-01    0.1900779E-01    0.1901540E-01    0.5517696E-01    0.8593645E-01    0.1082831E+00    0.1200283E+00    0.1200216E+00    0.1082638E+00    0.8590357E-01
  0.5512766E-01    0.1894864E-01   -0.1906157E-01   -0.5521298E-01   -0.8596387E-01   -0.1083061E+00   -0.1200500E+00   -0.1200425E+00   -0.1082892E+00   -0.8593771E-01
 -0.5517162E-01   -0.1900820E-01    0.1715416E-01    0.4977577E-01    0.7752404E-01    0.9768262E-01    0.1082773E+00    0.1082705E+00    0.9766238E-01    0.7749009E-01
  0.4972764E-01    0.1709512E-01   -0.1719927E-01   -0.4981208E-01   -0.7755268E-01   -0.9770648E-01   -0.1082993E+00   -0.1082928E+00   -0.9768916E-01   -0.7752458E-01
 -0.4977123E-01   -0.1714763E-01    0.1361322E-01    0.3950159E-01    0.6152220E-01    0.7751923E-01    0.8592611E-01    0.8591933E-01    0.7749910E-01    0.6148918E-01
  0.3945710E-01    0.1356195E-01   -0.1365614E-01   -0.3953787E-01   -0.6155196E-01   -0.7754443E-01   -0.8594935E-01   -0.8594344E-01   -0.7752737E-01   -0.6152401E-01
 -0.3949901E-01   -0.1360869E-01    0.8739396E-02    0.2536024E-01    0.3949741E-01    0.4976676E-01    0.5516257E-01    0.5515618E-01    0.4974784E-01    0.3946698E-01
  0.2532065E-01    0.8695166E-02   -0.8779976E-02   -0.2539598E-01   -0.3952799E-01   -0.4979345E-01   -0.5518757E-01   -0.5518217E-01   -0.4977743E-01   -0.3950181E-01
 -0.2536070E-01   -0.8738064E-02    0.3009996E-02    0.8736117E-02    0.1360574E-01    0.1714196E-01    0.1899822E-01    0.1899243E-01    0.1712499E-01    0.1357887E-01
  0.8701771E-02    0.2972140E-02   -0.3048325E-02   -0.8771060E-02   -0.1363682E-01   -0.1716997E-01   -0.1902498E-01   -0.1902012E-01   -0.1715555E-01   -0.1361344E-01
 -0.8740070E-02   -0.3012093E-02   -0.3014422E-02   -0.8743559E-02   -0.1361825E-01   -0.1716154E-01   -0.1902689E-01   -0.1903194E-01   -0.1717625E-01   -0.1364131E-01
 -0.8772647E-02   -0.3046207E-02    0.2977787E-02    0.8709377E-02    0.1358694E-01    0.1713246E-01    0.1899866E-01    0.1900293E-01    0.1714499E-01    0.1360708E-01
  0.8735910E-02    0.3008483E-02   -0.8744012E-02   -0.2536768E-01   -0.3950972E-01   -0.4978598E-01   -0.5519070E-01   -0.5519497E-01   -0.4979844E-01   -0.3952915E-01
 -0.2539197E-01   -0.8770433E-02    0.8708655E-02    0.2533416E-01    0.3947822E-01    0.4975602E-01    0.5516131E-01    0.5516488E-01    0.4976664E-01    0.3949525E-01
  0.2535628E-01    0.8734056E-02   -0.1361777E-01   -0.3950895E-01   -0.6153427E-01   -0.7753784E-01   -0.8595324E-01   -0.8595685E-01   -0.7754829E-01   -0.6155046E-01
 -0.3952920E-01   -0.1363983E-01    0.1358357E-01    0.3947596E-01    0.6150263E-01    0.7750727E-01    0.8592297E-01    0.8592599E-01    0.7751622E-01    0.6151691E-01
  0.3949443E-01    0.1360476E-01   -0.1715910E-01   -0.4978333E-01   -0.7753601E-01   -0.9770058E-01   -0.1083033E+00   -0.1083064E+00   -0.9770938E-01   -0.7754962E-01
 -0.4980026E-01   -0.1717744E-01    0.1712547E-01    0.4975064E-01    0.7750436E-01    0.9766964E-01    0.1082725E+00    0.1082751E+00    0.9767723E-01    0.7751638E-01
  0.4976632E-01    0.1714340E-01   -0.1902113E-01   -0.5518503E-01   -0.8594867E-01   -0.1083007E+00   -0.1200533E+00   -0.1200559E+00   -0.1083084E+00   -0.8596044E-01
 -0.5519960E-01   -0.1903692E-01    0.1898785E-01    0.5515256E-01    0.8591693E-01    0.1082695E+00    0.1200222E+00    0.1200244E+00    0.1082761E+00    0.8592747E-01
  0.5516601E-01    0.1900310E-01   -0.1902138E-01   -0.5518527E-01   -0.8594882E-01   -0.1083007E+00   -0.1200530E+00   -0.1200554E+00   -0.1083076E+00   -0.8595945E-01
 -0.5519861E-01   -0.1903599E-01    0.1898862E-01    0.5515297E-01    0.8591703E-01    0.1082694E+00    0.1200217E+00    0.1200238E+00    0.1082755E+00    0.8592677E-01
  0.5516537E-01    0.1900266E-01   -0.1716052E-01   -0.4978434E-01   -0.7753647E-01   -0.9770039E-01   -0.1083024E+00   -0.1083047E+00   -0.9770701E-01   -0.7754675E-01
 -0.4979721E-01   -0.1717459E-01    0.1712772E-01    0.4975201E-01    0.7750476E-01    0.9766911E-01    0.1082713E+00    0.1082734E+00    0.9767525E-01    0.7751437E-01
  0.4976443E-01    0.1714175E-01   -0.1362039E-01   -0.3951078E-01   -0.6153514E-01   -0.7753765E-01   -0.8595189E-01   -0.8595423E-01   -0.7754452E-01   -0.6154585E-01
 -0.3952415E-01   -0.1363507E-01    0.1358734E-01    0.3947836E-01    0.6150338E-01    0.7750645E-01    0.8592104E-01    0.8592324E-01    0.7751300E-01    0.6151369E-01
  0.3949132E-01    0.1360179E-01   -0.8747086E-02   -0.2537007E-01   -0.3951110E-01   -0.4978602E-01   -0.5518916E-01   -0.5519179E-01   -0.4979360E-01   -0.3952292E-01
 -0.2538509E-01   -0.8763796E-02    0.8714096E-02    0.2533756E-01    0.3947937E-01    0.4975515E-01    0.5515873E-01    0.5516125E-01    0.4976255E-01    0.3949097E-01
  0.2535219E-01    0.8730444E-02   -0.3018444E-02   -0.8746683E-02   -0.1362014E-01   -0.1716188E-01   -0.1902542E-01   -0.1902842E-01   -0.1717060E-01   -0.1363381E-01
 -0.8763992E-02   -0.3037588E-02    0.2984859E-02    0.8713913E-02    0.1358866E-01    0.1713154E-01    0.1899573E-01    0.1899876E-01    0.1714013E-01    0.1360206E-01
  0.8731173E-02    0.3004176E-02    0.3005225E-02    0.8732353E-02    0.1360331E-01    0.1714112E-01    0.1899929E-01    0.1899581E-01    0.1713088E-01    0.1358721E-01
  0.8712000E-02    0.2982658E-02   -0.3039667E-02   -0.8765444E-02   -0.1363467E-01   -0.1717086E-01   -0.1902799E-01   -0.1902461E-01   -0.1716085E-01   -0.1361882E-01
 -0.8745417E-02   -0.3017342E-02    0.8734735E-02    0.2535624E-01    0.3949452E-01    0.4976533E-01    0.5516302E-01    0.5515892E-01    0.4975334E-01    0.3947562E-01
  0.2533208E-01    0.8707726E-02   -0.8769724E-02   -0.2538967E-01   -0.3952561E-01   -0.4979418E-01   -0.5519059E-01   -0.5518665E-01   -0.4978253E-01   -0.3950716E-01
 -0.2536610E-01   -0.8743209E-02    0.1360820E-01    0.3949739E-01    0.6151915E-01    0.7751747E-01    0.8592590E-01    0.8592120E-01    0.7750368E-01    0.6149731E-01
  0.3946958E-01    0.1357730E-01   -0.1364463E-01   -0.3953129E-01   -0.6154962E-01   -0.7754525E-01   -0.8595198E-01   -0.8594734E-01   -0.7753206E-01   -0.6152870E-01
 -0.3950381E-01   -0.1361365E-01    0.1714915E-01    0.4977175E-01    0.7752118E-01    0.9768064E-01    0.1082763E+00    0.1082712E+00    0.9766520E-01    0.7749654E-01
  0.4974061E-01    0.1711454E-01   -0.1718721E-01   -0.4980593E-01   -0.7755102E-01   -0.9770762E-01   -0.1083009E+00   -0.1082959E+00   -0.9769320E-01   -0.7752776E-01
 -0.4977547E-01   -0.1715328E-01    0.1901173E-01    0.5517384E-01    0.8593423E-01    0.1082812E+00    0.1200266E+00    0.1200211E+00    0.1082645E+00    0.8590729E-01
  0.5514004E-01    0.1897433E-01   -0.1905038E-01   -0.5520795E-01   -0.8596312E-01   -0.1083078E+00   -0.1200502E+00   -0.1200444E+00   -0.1082925E+00   -0.8593840E-01
 -0.5517438E-01   -0.1901392E-01   -0.7685045E-03   -0.9685107E-04    0.9685599E-03    0.1979910E-02    0.2686229E-02    0.2731526E-02    0.2063711E-02    0.1107577E-02
  0.1262728E-03   -0.4777134E-03   -0.4126086E-03    0.2059327E-03    0.1058525E-02    0.2249371E-02    0.2894062E-02    0.2657496E-02    0.2200493E-02    0.1171301E-02
 -0.1879888E-03   -0.6114864E-03   -0.6900852E-04    0.6047522E-03    0.1660686E-02    0.2693452E-02    0.3382980E-02    0.3407775E-02    0.2762133E-02    0.1782718E-02
  0.7622016E-03    0.9912668E-04    0.2108899E-03    0.8409607E-03    0.1739552E-02    0.2899837E-02    0.3529817E-02    0.3347667E-02    0.2842619E-02    0.1788604E-02
  0.5148016E-03    0.3263992E-04    0.9948009E-03    0.1666115E-02    0.2749318E-02    0.3786296E-02    0.4446732E-02    0.4493284E-02    0.3840541E-02    0.2828373E-02
  0.1827074E-02    0.1130111E-02    0.1203468E-02    0.1892335E-02    0.2807107E-02    0.3906575E-02    0.4599804E-02    0.4428057E-02    0.3837837E-02    0.2865281E-02
  0.1599305E-02    0.9972526E-03    0.1989548E-02    0.2682470E-02    0.3768272E-02    0.4791324E-02    0.5481226E-02    0.5525349E-02    0.4842978E-02    0.3869448E-02
  0.2856602E-02    0.2112970E-02    0.2221701E-02    0.2914293E-02    0.3802273E-02    0.4950065E-02    0.5640030E-02    0.5427304E-02    0.4897574E-02    0.3912147E-02