 TITLE = "NAVIER-STOKES OUTPUT"
 VARIABLES = "X", "Y", "U", "V", "P", "Pex", "Vor"
 ZONE I =   21, J =   21, DATAPACKING = BLOCK, VARLOCATION=(3=CELLCENTERED, 4=CELLCENTERED,5=CELLCENTERED,6=CELLCENTERED, 7=CELLCENTERED)
  0.0000000E+00    0.3141593E+00    0.6283185E+00    0.9424778E+00    0.1256637E+01    0.1570796E+01    0.1884956E+01    0.2199115E+01    0.2513274E+01    0.2827433E+01
  0.3141593E+01    0.3455752E+01    0.3769911E+01    0.4084071E+01    0.4398230E+01    0.4712389E+01    0.5026548E+01    0.5340708E+01    0.5654867E+01    0.5969026E+01
  0.6283185E+01    0.0000000E+00    0.3141593E+00    0.6283185E+00    0.9424778E+00    0.1256637E+01    0.1570796E+01    0.1884956E+01    0.2199115E+01    0.2513274E+01
  0.2827433E+01    0.3141593E+01    0.3455752E+01    0.3769911E+01    0.4084071E+01    0.4398230E+01    0.4712389E+01    0.5026548E+01    0.5340708E+01    0.5654867E+01
  0.5969026E+01    0.6283185E+01    0.0000000E+00    0.3141593E+00    0.6283185E+00    0.9424778E+00    0.1256637E+01    0.1570796E+01    0.1884956E+01    0.2199115E+01
  0.2513274E+01    0.2827433E+01    0.3141593E+01    0.3455752E+01    0.3769911E+01    0.4084071E+01    0.4398230E+01    0.4712389E+01    0.5026548E+01    0.5340708E+01
  0.5654867E+01    0.5969026E+01    0.6283185E+01    0.0000000E+00    0.3141593E+00    0.6283185E+00    0.9424778E+00    0.1256637E+01    0.1570796E+01    0.1884956E+01
  0.2199115E+01    0.2513274E+01    0.2827433E+01    0.3141593E+01    0.3455752E+01    0.3769911E+01    0.4084071E+01    0.4398230E+01    0.4712389E+01    0.5026548E+01
  0.5340708E+01    0.5654867E+01    0.5969026E+01    0.6283185E+01    0.0000000E+00    0.3141593E+00    0.6283185E+00    0.9424778E+00    0.1256637E+01    0.1570796E+01
  0.1884956E+01    0.2199115E+01    0.2513274E+01    0.2827433E+01    0.3141593E+01    0.3455752E+01    0.3769911E+01    0.4084071E+01    0.4398230E+01    0.4712389E+01
  0.5026548E+01    0.5340708E+01    0.5654867E+01    0.5969026E+01    0.6283185E+01    0.0000000E+00    0.3141593E+00    0.6283185E+00    0.9424778E+00    0.1256637E+01
  0.1570796E+01    0.1884956E+01    0.2199115E+01    0.2513274E+01    0.2827433E+01    0.3141593E+01    0.3455752E+01    0.3769911E+01    0.4084071E+01    0.4398230E+01
  0.4712389E+01    0.5026548E+01    0.5340708E+01    0.5654867E+01    0.5969026E+01    0.6283185E+01    0.0000000E+00    0.3141593E+00    0.6283185E+00    0.9424778E+00
  0.1256637E+01    0.1570796E+01    0.1884956E+01    0.2199115E+01    0.2513274E+01    0.2827433E+01    0.3141593E+01    0.3455752E+01    0.3769911E+01    0.4084071E+01
  0.4398230E+01    0.4712389E+01    0.5026548E+01    0.5340708E+01    0.5654867E+01    0.5969026E+01    0.6283185E+01    0.0000000E+00    0.3141593E+00    0.6283185E+00
  0.9424778E+00    0.1256637E+01    0.1570796E+01    0.1884956E+01    0.2199115E+01    0.2513274E+01    0.2827433E+01    0.3141593E+01    0.3455752E+01    0.3769911E+01
  0.4084071E+01    0.4398230E+01    0.4712389E+01    0.5026548E+01    0.5340708E+01    0.5654867E+01    0.5969026E+01    0.6283185E+01    0.0000000E+00    0.3141593E+00
  0.6283185E+00    0.9424778E+00    0.1256637E+01    0.1570796E+01    0.1884956E+01    0.2199115E+01    0.2513274E+01    0.2827433E+01    0.3141593E+01    0.3455752E+01
  0.3769911E+01    0.4084071E+01    0.4398230E+01    0.4712389E+01    0.5026548E+01    0.5340708E+01    0.5654867E+01    0.5969026E+01    0.6283185E+01    0.0000000E+00
  0.3141593E+00    0.6283185E+00    0.9424778E+00    0.1256637E+01    0.1570796E+01    0.1884956E+01    0.2199115E+01    0.2513274E+01    0.2827433E+01    0.3141593E+01
  0.3455752E+01    0.3769911E+01    0.4084071E+01    0.4398230E+01    0.4712389E+01    0.5026548E+01    0.5340708E+01    0.5654867E+01    0.5969026E+01    0.6283185E+01
  0.0000000E+00    0.3141593E+00    0.6283185E+00    0.9424778E+00    0.1256637E+01    0.1570796E+01    0.1884956E+01    0.2199115E+01    0.2513274E+01    0.2827433E+01
  0.3141593E+01    0.3455752E+01    0.3769911E+01    0.4084071E+01    0.4398230E+01    0.4712389E+01    0.5026548E+01    0.5340708E+01    0.5654867E+01    0.5969026E+01
  0.6283185E+01    0.0000000E+00    0.3141593E+00    0.6283185E+00    0.9424778E+00    0.1256637E+01    0.1570796E+01    0.1884956E+01    0.2199115E+01    0.2513274E+01
  0.2827433E+01    0.3141593E+01    0.3455752E+01    0.3769911E+01    0.4084071E+01    0.4398230E+01    0.4712389E+01    0.5026548E+01    0.5340708E+01    0.5654867E+01
  0.5969026E+01    0.6283185E+01    0.0000000E+00    0.3141593E+00    0.6283185E+00    0.9424778E+00    0.1256637E+01    0.1570796E+01    0.1884956E+01    0.2199115E+01
  0.2513274E+01    0.2827433E+01    0.3141593E+01    0.3455752E+01    0.3769911E+01    0.4084071E+01    0.4398230E+01    0.4712389E+01    0.5026548E+01    0.5340708E+01
  0.5654867E+01    0.5969026E+01    0.6283185E+01    0.0000000E+00    0.3141593E+00    0.6283185E+00    0.9424778E+00    0.1256637E+01    0.1570796E+01    0.1884956E+01
  0.2199115E+01    0.2513274E+01    0.2827433E+01    0.3141593E+01    0.3455752E+01    0.3769911E+01    0.4084071E+01    0.4398230E+01    0.4712389E+01    0.5026548E+01
  0.5340708E+01    0.5654867E+01    0.5969026E+01    0.6283185E+01    0.0000000E+00    0.3141593E+00    0.6283185E+00    0.9424778E+00    0.1256637E+01    0.1570796E+01
  0.1884956E+01    0.2199115E+01    0.2513274E+01    0.2827433E+01    0.3141593E+01    0.3455752E+01    0.3769911E+01    0.4084071E+01    0.4398230E+01    0.4712389E+01
  0.5026548E+01    0.5340708E+01    0.5654867E+01    0.5969026E+01    0.6283185E+01    0.0000000E+00    0.3141593E+00    0.6283185E+00    0.9424778E+00    0.1256637E+01
  0.1570796E+01    0.1884956E+01    0.2199115E+01    0.2513274E+01    0.2827433E+01    0.3141593E+01    0.3455752E+01    0.3769911E+01    0.4084071E+01    0.4398230E+01
  0.4712389E+01    0.5026548E+01    0.5340708E+01    0.5654867E+01    0.5969026E+01    0.6283185E+01    0.0000000E+00    0.3141593E+00    0.6283185E+00    0.9424778E+00
  0.1256637E+01    0.1570796E+01    0.1884956E+01    0.2199115E+01    0.2513274E+01    0.2827433E+01    0.3141593E+01    0.3455752E+01    0.3769911E+01    0.4084071E+01
  0.4398230E+01    0.4712389E+01    0.5026548E+01    0.5340708E+01    0.5654867E+01    0.5969026E+01    0.6283185E+01    0.0000000E+00    0.3141593E+00    0.6283185E+00
  0.9424778E+00    0.1256637E+01    0.1570796E+01    0.1884956E+01    0.2199115E+01    0.2513274E+01    0.2827433E+01    0.3141593E+01    0.3455752E+01    0.3769911E+01
  0.4084071E+01    0.4398230E+01    0.4712389E+01    0.5026548E+01    0.5340708E+01    0.5654867E+01    0.5969026E+01    0.6283185E+01    0.0000000E+00    0.3141593E+00
  0.6283185E+00    0.9424778E+00    0.1256637E+01    0.1570796E+01    0.1884956E+01    0.2199115E+01    0.2513274E+01    0.2827433E+01    0.3141593E+01    0.3455752E+01
  0.3769911E+01    0.4084071E+01    0.4398230E+01    0.4712389E+01    0.5026548E+01    0.5340708E+01    0.5654867E+01    0.5969026E+01    0.6283185E+01    0.0000000E+00
  0.3141593E+00    0.6283185E+00    0.9424778E+00    0.1256637E+01    0.1570796E+01    0.1884956E+01    0.2199115E+01    0.2513274E+01    0.2827433E+01    0.3141593E+01
  0.3455752E+01    0.3769911E+01    0.4084071E+01    0.4398230E+01    0.4712389E+01    0.5026548E+01    0.5340708E+01    0.5654867E+01    0.5969026E+01    0.6283185E+01
  0.0000000E+00    0.3141593E+00    0.6283185E+00    0.9424778E+00    0.1256637E+01    0.1570796E+01    0.1884956E+01    0.2199115E+01    0.2513274E+01    0.2827433E+01
  0.3141593E+01    0.3455752E+01    0.3769911E+01    0.4084071E+01    0.4398230E+01    0.4712389E+01    0.5026548E+01    0.5340708E+01    0.5654867E+01    0.5969026E+01
  0.6283185E+01    0.0000000E+00    0.0000000E+00    0.0000000E+00    0.0000000E+00    0.0000000E+00    0.0000000E+00    0.0000000E+00    0.0000000E+00    0.0000000E+00
  0.0000000E+00    0.0000000E+00    0.0000000E+00    0.0000000E+00    0.0000000E+00    0.0000000E+00    0.0000000E+00    0.0000000E+00    0.0000000E+00    0.0000000E+00
  0.0000000E+00    0.0000000E+00    0.3141593E+00    0.3141593E+00    0.3141593E+00    0.3141593E+00    0.3141593E+00    0.3141593E+00    0.3141593E+00    0.3141593E+00
  0.3141593E+00    0.3141593E+00    0.3141593E+00    0.3141593E+00    0.3141593E+00    0.3141593E+00    0.3141593E+00    0.3141593E+00    0.3141593E+00    0.3141593E+00
  0.3141593E+00    0.3141593E+00    0.3141593E+00    0.6283185E+00    0.6283185E+00    0.6283185E+00    0.6283185E+00    0.6283185E+00    0.6283185E+00    0.6283185E+00
  0.6283185E+00    0.6283185E+00    0.6283185E+00    0.6283185E+00    0.6283185E+00    0.6283185E+00    0.6283185E+00    0.6283185E+00    0.6283185E+00    0.6283185E+00
  0.6283185E+00    0.6283185E+00    0.6283185E+00    0.6283185E+00    0.9424778E+00    0.9424778E+00    0.9424778E+00    0.9424778E+00    0.9424778E+00    0.9424778E+00
  0.9424778E+00    0.9424778E+00    0.9424778E+00    0.9424778E+00    0.9424778E+00    0.9424778E+00    0.9424778E+00    0.9424778E+00    0.9424778E+00    0.9424778E+00
  0.9424778E+00    0.9424778E+00    0.9424778E+00    0.9424778E+00    0.9424778E+00    0.1256637E+01    0.1256637E+01    0.1256637E+01    0.1256637E+01    0.1256637E+01
  0.1256637E+01    0.1256637E+01    0.1256637E+01    0.1256637E+01    0.1256637E+01    0.1256637E+01    0.1256637E+01    0.1256637E+01    0.1256637E+01    0.1256637E+01
  0.1256637E+01    0.1256637E+01    0.1256637E+01    0.1256637E+01    0.1256637E+01    0.1256637E+01    0.1570796E+01    0.1570796E+01    0.1570796E+01    0.1570796E+01
  0.1570796E+01    0.1570796E+01    0.1570796E+01    0.1570796E+01    0.1570796E+01    0.1570796E+01    0.1570796E+01    0.1570796E+01    0.1570796E+01    0.1570796E+01
  0.1570796E+01    0.1570796E+01    0.1570796E+01    0.1570796E+01    0.1570796E+01    0.1570796E+01    0.1570796E+01    0.1884956E+01    0.1884956E+01    0.1884956E+01
  0.1884956E+01    0.1884956E+01    0.1884956E+01    0.1884956E+01    0.1884956E+01    0.1884956E+01    0.1884956E+01    0.1884956E+01    0.1884956E+01    0.1884956E+01
  0.1884956E+01    0.1884956E+01    0.1884956E+01    0.1884956E+01    0.1884956E+01    0.1884956E+01    0.1884956E+01    0.1884956E+01    0.2199115E+01    0.2199115E+01
  0.2199115E+01    0.2199115E+01    0.2199115E+01    0.2199115E+01    0.2199115E+01    0.2199115E+01    0.2199115E+01    0.2199115E+01    0.2199115E+01    0.2199115E+01
  0.2199115E+01    0.2199115E+01    0.2199115E+01    0.2199115E+01    0.2199115E+01    0.2199115E+01    0.2199115E+01    0.2199115E+01    0.2199115E+01    0.2513274E+01
  0.2513274E+01    0.2513274E+01    0.2513274E+01    0.2513274E+01    0.2513274E+01    0.2513274E+01    0.2513274E+01    0.2513274E+01    0.2513274E+01    0.2513274E+01
  0.2513274E+01    0.2513274E+01    0.2513274E+01    0.2513274E+01    0.2513274E+01    0.2513274E+01    0.2513274E+01    0.2513274E+01    0.2513274E+01    0.2513274E+01
  0.2827433E+01    0.2827433E+01    0.2827433E+01    0.2827433E+01    0.2827433E+01    0.2827433E+01    0.2827433E+01    0.2827433E+01    0.2827433E+01    0.2827433E+01
  0.2827433E+01    0.2827433E+01    0.2827433E+01    0.2827433E+01    0.2827433E+01    0.2827433E+01    0.2827433E+01    0.2827433E+01    0.2827433E+01    0.2827433E+01
  0.2827433E+01    0.3141593E+01    0.3141593E+01    0.3141593E+01    0.3141593E+01    0.3141593E+01    0.3141593E+01    0.3141593E+01    0.3141593E+01    0.3141593E+01
  0.3141593E+01    0.3141593E+01    0.3141593E+01    0.3141593E+01    0.3141593E+01    0.3141593E+01    0.3141593E+01    0.3141593E+01    0.3141593E+01    0.3141593E+01
  0.3141593E+01    0.3141593E+01    0.3455752E+01    0.3455752E+01    0.3455752E+01    0.3455752E+01    0.3455752E+01    0.3455752E+01    0.3455752E+01    0.3455752E+01
  0.3455752E+01    0.3455752E+01    0.3455752E+01    0.3455752E+01    0.3455752E+01    0.3455752E+01    0.3455752E+01    0.3455752E+01    0.3455752E+01    0.3455752E+01
  0.3455752E+01    0.3455752E+01    0.3455752E+01    0.3769911E+01    0.3769911E+01    0.3769911E+01    0.3769911E+01    0.3769911E+01    0.3769911E+01    0.3769911E+01
  0.3769911E+01    0.3769911E+01    0.3769911E+01    0.3769911E+01    0.3769911E+01    0.3769911E+01    0.3769911E+01    0.3769911E+01    0.3769911E+01    0.3769911E+01
  0.3769911E+01    0.3769911E+01    0.3769911E+01    0.3769911E+01    0.4084071E+01    0.4084071E+01    0.4084071E+01    0.4084071E+01    0.4084071E+01    0.4084071E+01
  0.4084071E+01    0.4084071E+01    0.4084071E+01    0.4084071E+01    0.4084071E+01    0.4084071E+01    0.4084071E+01    0.4084071E+01    0.4084071E+01    0.4084071E+01
  0.4084071E+01    0.4084071E+01    0.4084071E+01    0.4084071E+01    0.4084071E+01    0.4398230E+01    0.4398230E+01    0.4398230E+01    0.4398230E+01    0.4398230E+01
  0.4398230E+01    0.4398230E+01    0.4398230E+01    0.4398230E+01    0.4398230E+01    0.4398230E+01    0.4398230E+01    0.4398230E+01    0.4398230E+01    0.4398230E+01
  0.4398230E+01    0.4398230E+01    0.4398230E+01    0.4398230E+01    0.4398230E+01    0.4398230E+01    0.4712389E+01    0.4712389E+01    0.4712389E+01    0.4712389E+01
  0.4712389E+01    0.4712389E+01    0.4712389E+01    0.4712389E+01    0.4712389E+01    0.4712389E+01    0.4712389E+01    0.4712389E+01    0.4712389E+01    0.4712389E+01
  0.4712389E+01    0.4712389E+01    0.4712389E+01    0.4712389E+01    0.4712389E+01    0.4712389E+01    0.4712389E+01    0.5026548E+01    0.5026548E+01    0.5026548E+01
  0.5026548E+01    0.5026548E+01    0.5026548E+01    0.5026548E+01    0.5026548E+01    0.5026548E+01    0.5026548E+01    0.5026548E+01    0.5026548E+01    0.5026548E+01
  0.5026548E+01    0.5026548E+01    0.5026548E+01    0.5026548E+01    0.5026548E+01    0.5026548E+01    0.5026548E+01    0.5026548E+01    0.5340708E+01    0.5340708E+01
  0.5340708E+01    0.5340708E+01    0.5340708E+01    0.5340708E+01    0.5340708E+01    0.5340708E+01    0.5340708E+01    0.5340708E+01    0.5340708E+01    0.5340708E+01
  0.5340708E+01    0.5340708E+01    0.5340708E+01    0.5340708E+01    0.5340708E+01    0.5340708E+01    0.5340708E+01    0.5340708E+01    0.5340708E+01    0.5654867E+01
  0.5654867E+01    0.5654867E+01    0.5654867E+01    0.5654867E+01    0.5654867E+01    0.5654867E+01    0.5654867E+01    0.5654867E+01    0.5654867E+01    0.5654867E+01
  0.5654867E+01    0.5654867E+01    0.5654867E+01    0.5654867E+01    0.5654867E+01    0.5654867E+01    0.5654867E+01    0.5654867E+01    0.5654867E+01    0.5654867E+01
  0.5969026E+01    0.5969026E+01    0.5969026E+01    0.5969026E+01    0.5969026E+01    0.5969026E+01    0.5969026E+01    0.5969026E+01    0.5969026E+01    0.5969026E+01
  0.5969026E+01    0.5969026E+01    0.5969026E+01    0.5969026E+01    0.5969026E+01    0.5969026E+01    0.5969026E+01    0.5969026E+01    0.5969026E+01    0.5969026E+01
  0.5969026E+01    0.6283185E+01    0.6283185E+01    0.6283185E+01    0.6283185E+01    0.6283185E+01    0.6283185E+01    0.6283185E+01    0.6283185E+01    0.6283185E+01
  0.6283185E+01    0.6283185E+01    0.6283185E+01    0.6283185E+01    0.6283185E+01    0.6283185E+01    0.6283185E+01    0.6283185E+01    0.6283185E+01    0.6283185E+01
  0.6283185E+01    0.6283185E+01   -0.2560035E-01   -0.2309455E-01   -0.1832812E-01   -0.1176743E-01   -0.4054409E-02    0.4055788E-02    0.1176982E-01    0.1833329E-01
  0.2310284E-01    0.2560169E-01    0.2559450E-01    0.2309067E-01    0.1832605E-01    0.1176656E-01    0.4053664E-02   -0.4056105E-02   -0.1176862E-01   -0.1833033E-01
 -0.2309747E-01   -0.2560298E-01   -0.7429508E-01   -0.6702170E-01   -0.5318760E-01   -0.3414670E-01   -0.1176264E-01    0.1177346E-01    0.3415788E-01    0.5319924E-01
  0.6703192E-01    0.7429764E-01    0.7429047E-01    0.6701630E-01    0.5318344E-01    0.3414438E-01    0.1176202E-01   -0.1177200E-01   -0.3415401E-01   -0.5319372E-01
 -0.6702653E-01   -0.7429828E-01   -0.1157174E+00   -0.1043883E+00   -0.8284081E-01   -0.5318372E-01   -0.1831989E-01    0.1833790E-01    0.5320108E-01    0.8285638E-01
  0.1043995E+00    0.1157205E+00    0.1157139E+00    0.1043829E+00    0.8283573E-01    0.5318055E-01    0.1831926E-01   -0.1833565E-01   -0.5319619E-01   -0.8285032E-01
 -0.1043948E+00   -0.1157206E+00   -0.1458117E+00   -0.1315365E+00   -0.1043851E+00   -0.6701516E-01   -0.2308451E-01    0.2310637E-01    0.6703562E-01    0.1044025E+00
  0.1315482E+00    0.1458156E+00    0.1458094E+00    0.1315316E+00    0.1043800E+00    0.6701167E-01    0.2308361E-01   -0.2310430E-01   -0.6703106E-01   -0.1043972E+00
 -0.1315446E+00   -0.1458156E+00   -0.1616335E+00   -0.1458093E+00   -0.1157118E+00   -0.7428711E-01   -0.2559002E-01    0.2561239E-01    0.7430772E-01    0.1157287E+00
  0.1458203E+00    0.1616370E+00    0.1616313E+00    0.1458048E+00    0.1157069E+00    0.7428340E-01    0.2558857E-01   -0.2561122E-01   -0.7430450E-01   -0.1157251E+00
 -0.1458182E+00   -0.1616381E+00   -0.1616338E+00   -0.1458094E+00   -0.1157120E+00   -0.7428751E-01   -0.2559080E-01    0.2561116E-01    0.7430600E-01    0.1157268E+00
  0.1458185E+00    0.1616359E+00    0.1616311E+00    0.1458050E+00    0.1157071E+00    0.7428357E-01    0.2558866E-01   -0.2561127E-01   -0.7430457E-01   -0.1157250E+00
 -0.1458181E+00   -0.1616378E+00   -0.1458113E+00   -0.1315363E+00   -0.1043853E+00   -0.6701599E-01   -0.2308637E-01    0.2310317E-01    0.6703108E-01    0.1043971E+00
  0.1315433E+00    0.1458127E+00    0.1458088E+00    0.1315321E+00    0.1043806E+00    0.6701191E-01    0.2308351E-01   -0.2310460E-01   -0.6703139E-01   -0.1043973E+00
 -0.1315445E+00   -0.1458154E+00   -0.1157165E+00   -0.1043877E+00   -0.8284050E-01   -0.5318416E-01   -0.1832167E-01    0.1833425E-01    0.5319534E-01    0.8284890E-01
  0.1043921E+00    0.1157164E+00    0.1157133E+00    0.1043834E+00    0.8283592E-01    0.5317995E-01    0.1831825E-01   -0.1833671E-01   -0.5319717E-01   -0.8285084E-01
 -0.1043949E+00   -0.1157207E+00   -0.7429453E-01   -0.6702061E-01   -0.5318637E-01   -0.3414590E-01   -0.1176297E-01    0.1177130E-01    0.3415310E-01    0.5319148E-01
  0.6702272E-01    0.7429297E-01    0.7429078E-01    0.6701640E-01    0.5318196E-01    0.3414172E-01    0.1175930E-01   -0.1177450E-01   -0.3415600E-01   -0.5319450E-01
 -0.6702639E-01   -0.7429749E-01   -0.2559893E-01   -0.2309255E-01   -0.1832562E-01   -0.1176477E-01   -0.4052311E-02    0.4056631E-02    0.1176832E-01    0.1832784E-01
  0.2309292E-01    0.2559733E-01    0.2559596E-01    0.2308886E-01    0.1832163E-01    0.1176090E-01    0.4048606E-02   -0.4060193E-02   -0.1177179E-01   -0.1833158E-01
 -0.2309717E-01   -0.2560192E-01    0.2560151E-01    0.2309569E-01    0.1832908E-01    0.1176824E-01    0.4055312E-02   -0.4054739E-02   -0.1176802E-01   -0.1832961E-01
 -0.2309717E-01   -0.2560395E-01   -0.2560463E-01   -0.2309911E-01   -0.1833256E-01   -0.1177174E-01   -0.4058851E-02    0.4051144E-02    0.1176421E-01    0.1832536E-01
  0.2309238E-01    0.2559839E-01    0.7429577E-01    0.6702323E-01    0.5318970E-01    0.3414938E-01    0.1176613E-01   -0.1176904E-01   -0.3415236E-01   -0.5319272E-01
 -0.6702632E-01   -0.7429908E-01   -0.7429901E-01   -0.6702619E-01   -0.5319264E-01   -0.3415238E-01   -0.1176930E-01    0.1176549E-01    0.3414841E-01    0.5318840E-01
  0.6702163E-01    0.7429425E-01    0.1157188E+00    0.1043905E+00    0.8284382E-01    0.5318774E-01    0.1832516E-01   -0.1833144E-01   -0.5319371E-01   -0.8284905E-01
 -0.1043947E+00   -0.1157214E+00   -0.1157206E+00   -0.1043925E+00   -0.8284596E-01   -0.5319007E-01   -0.1832798E-01    0.1832799E-01    0.5318976E-01    0.8284460E-01
  0.1043900E+00    0.1157171E+00    0.1458131E+00    0.1315388E+00    0.1043884E+00    0.6701952E-01    0.2309011E-01   -0.2309970E-01   -0.6702840E-01   -0.1043959E+00
 -0.1315444E+00   -0.1458163E+00   -0.1458149E+00   -0.1315402E+00   -0.1043897E+00   -0.6702128E-01   -0.2309259E-01    0.2309639E-01    0.6702423E-01    0.1043911E+00
  0.1315394E+00    0.1458111E+00    0.1616340E+00    0.1458109E+00    0.1157145E+00    0.7429067E-01    0.2559451E-01   -0.2560720E-01   -0.7430240E-01   -0.1157242E+00
 -0.1458180E+00   -0.1616380E+00   -0.1616358E+00   -0.1458117E+00   -0.1157151E+00   -0.7429180E-01   -0.2559660E-01    0.2560382E-01    0.7429795E-01    0.1157193E+00
  0.1458130E+00    0.1616337E+00    0.1616347E+00    0.1458106E+00    0.1157136E+00    0.7428954E-01    0.2559324E-01   -0.2560856E-01   -0.7430360E-01   -0.1157251E+00
 -0.1458183E+00   -0.1616376E+00   -0.1616347E+00   -0.1458102E+00   -0.1157133E+00   -0.7428992E-01   -0.2559509E-01    0.2560507E-01    0.7429889E-01    0.1157197E+00
  0.1458133E+00    0.1616340E+00    0.1458118E+00    0.1315367E+00    0.1043857E+00    0.6701628E-01    0.2308646E-01   -0.2310346E-01   -0.6703181E-01   -0.1043984E+00
 -0.1315453E+00   -0.1458152E+00   -0.1458118E+00   -0.1315357E+00   -0.1043845E+00   -0.6701614E-01   -0.2308808E-01    0.2309991E-01    0.6702659E-01    0.1043924E+00
  0.1315396E+00    0.1458102E+00    0.1157155E+00    0.1043871E+00    0.8283982E-01    0.5318302E-01    0.1831987E-01   -0.1833678E-01   -0.5319854E-01   -0.8285246E-01
 -0.1043957E+00   -0.1157197E+00   -0.1157160E+00   -0.1043857E+00   -0.8283821E-01   -0.5318249E-01   -0.1832121E-01    0.1833311E-01    0.5319313E-01    0.8284653E-01
  0.1043902E+00    0.1157158E+00    0.7429492E-01    0.6702043E-01    0.5318554E-01    0.3414426E-01    0.1176049E-01   -0.1177466E-01   -0.3415720E-01   -0.5319574E-01
 -0.6702674E-01   -0.7429663E-01   -0.7429358E-01   -0.6701840E-01   -0.5318379E-01   -0.3414356E-01   -0.1176166E-01    0.1177129E-01    0.3415245E-01    0.5319054E-01
  0.6702202E-01    0.7429376E-01    0.2560006E-01    0.2309294E-01    0.1832537E-01    0.1176381E-01    0.4050696E-02   -0.4058820E-02   -0.1177087E-01   -0.1833015E-01
 -0.2309495E-01   -0.2560079E-01   -0.2560037E-01   -0.2309239E-01   -0.1832474E-01   -0.1176377E-01   -0.4051581E-02    0.4056526E-02    0.1176785E-01    0.1832741E-01
  0.2309210E-01    0.2559626E-01    0.2560528E-01    0.7429901E-01    0.1157193E+00    0.1458119E+00    0.1616293E+00    0.1616219E+00    0.1457902E+00    0.1156820E+00
  0.7424189E-01    0.2551865E-01   -0.2565699E-01   -0.7433691E-01   -0.1157455E+00   -0.1458305E+00   -0.1616447E+00   -0.1616371E+00   -0.1458118E+00   -0.1157154E+00
 -0.7429003E-01   -0.2559512E-01    0.2309909E-01    0.6702612E-01    0.1043917E+00    0.1315380E+00    0.1458062E+00    0.1457986E+00    0.1315150E+00    0.1043524E+00
  0.6696921E-01    0.2302685E-01   -0.2315071E-01   -0.6706535E-01   -0.1044195E+00   -0.1315578E+00   -0.1458224E+00   -0.1458156E+00   -0.1315386E+00   -0.1043874E+00
 -0.6701801E-01   -0.2308960E-01    0.1833120E-01    0.5319158E-01    0.8284461E-01    0.1043871E+00    0.1157093E+00    0.1157017E+00    0.1043643E+00    0.8280646E-01
  0.5313927E-01    0.1827012E-01   -0.1838009E-01   -0.5323091E-01   -0.8287400E-01   -0.1044090E+00   -0.1157277E+00   -0.1157213E+00   -0.1043901E+00   -0.8284220E-01
 -0.5318590E-01   -0.1832407E-01    0.1176872E-01    0.3414990E-01    0.5318741E-01    0.6701721E-01    0.7428470E-01    0.7427757E-01    0.6699597E-01    0.5315272E-01
  0.3410401E-01    0.1171704E-01   -0.1181402E-01   -0.3418828E-01   -0.5321788E-01   -0.6704142E-01   -0.7430605E-01   -0.7430017E-01   -0.6702378E-01   -0.5318847E-01
 -0.3414778E-01   -0.1176517E-01    0.4054226E-02    0.1176514E-01    0.1832340E-01    0.2308657E-01    0.2558768E-01    0.2558130E-01    0.2306773E-01    0.1829321E-01
  0.1172613E-01    0.4010953E-02   -0.4096001E-02   -0.1180208E-01   -0.1835445E-01   -0.2311287E-01   -0.2561187E-01   -0.2560658E-01   -0.2309716E-01   -0.1832859E-01
 -0.1176709E-01   -0.4054689E-02   -0.4057570E-02   -0.1177168E-01   -0.1833470E-01   -0.2310462E-01   -0.2561497E-01   -0.2562046E-01   -0.2312071E-01   -0.1836012E-01
 -0.1180394E-01   -0.4093018E-02    0.4018446E-02    0.1173601E-01    0.1830323E-01    0.2307654E-01    0.2558838E-01    0.2559289E-01    0.2309001E-01    0.1832522E-01
  0.1176526E-01    0.4052638E-02   -0.1177224E-01   -0.3415636E-01   -0.5319843E-01   -0.6703472E-01   -0.7431116E-01   -0.7431579E-01   -0.6704815E-01   -0.5321939E-01
 -0.3418273E-01   -0.1180097E-01    0.1173528E-01    0.3412181E-01    0.5316679E-01    0.6700541E-01    0.7428274E-01    0.7428653E-01    0.6701664E-01    0.5318492E-01
  0.3414572E-01    0.1176296E-01   -0.1833453E-01   -0.5319778E-01   -0.8285510E-01   -0.1044036E+00   -0.1157343E+00   -0.1157381E+00   -0.1044147E+00   -0.8287232E-01
 -0.5321930E-01   -0.1835793E-01    0.1829936E-01    0.5316422E-01    0.8282350E-01    0.1043735E+00    0.1157046E+00    0.1157078E+00    0.1043827E+00    0.8283830E-01
  0.5318372E-01    0.1832178E-01   -0.2310275E-01   -0.6703238E-01   -0.1044019E+00   -0.1315536E+00   -0.1458298E+00   -0.1458329E+00   -0.1315628E+00   -0.1044162E+00
 -0.6704998E-01   -0.2312181E-01    0.2306848E-01    0.6699936E-01    0.1043703E+00    0.1315229E+00    0.1457993E+00    0.1458019E+00    0.1315306E+00    0.1043826E+00
  0.6701540E-01    0.2308698E-01   -0.2560968E-01   -0.7430571E-01   -0.1157298E+00   -0.1458271E+00   -0.1616516E+00   -0.1616543E+00   -0.1458349E+00   -0.1157418E+00
 -0.7432067E-01   -0.2562581E-01    0.2557617E-01    0.7427310E-01    0.1156981E+00    0.1457962E+00    0.1616207E+00    0.1616230E+00    0.1458028E+00    0.1157087E+00
  0.7428672E-01    0.2559173E-01   -0.2560991E-01   -0.7430592E-01   -0.1157299E+00   -0.1458269E+00   -0.1616512E+00   -0.1616536E+00   -0.1458339E+00   -0.1157407E+00
 -0.7431939E-01   -0.2562459E-01    0.2557708E-01    0.7427369E-01    0.1156984E+00    0.1457959E+00    0.1616203E+00    0.1616224E+00    0.1458020E+00    0.1157079E+00
  0.7428613E-01    0.2559117E-01   -0.2310422E-01   -0.6703337E-01   -0.1044024E+00   -0.1315534E+00   -0.1458287E+00   -0.1458310E+00   -0.1315600E+00   -0.1044127E+00
 -0.6704622E-01   -0.2311827E-01    0.2307130E-01    0.6700112E-01    0.1043708E+00    0.1315223E+00    0.1457979E+00    0.1457999E+00    0.1315284E+00    0.1043804E+00
  0.6701337E-01    0.2308526E-01   -0.1833716E-01   -0.5319955E-01   -0.8285594E-01   -0.1044034E+00   -0.1157327E+00   -0.1157351E+00   -0.1044103E+00   -0.8286666E-01
 -0.5321306E-01   -0.1835197E-01    0.1830424E-01    0.5316725E-01    0.8282447E-01    0.1043727E+00    0.1157024E+00    0.1157046E+00    0.1043792E+00    0.8283472E-01
  0.5318030E-01    0.1831883E-01   -0.1177527E-01   -0.3415863E-01   -0.5319966E-01   -0.6703460E-01   -0.7430940E-01   -0.7431204E-01   -0.6704226E-01   -0.5321171E-01
 -0.3417393E-01   -0.1179228E-01    0.1174236E-01    0.3412636E-01    0.5316848E-01    0.6700440E-01    0.7427979E-01    0.7428242E-01    0.6701188E-01    0.5318017E-01
  0.3414137E-01    0.1175902E-01   -0.4061764E-02   -0.1177488E-01   -0.1833668E-01   -0.2310508E-01   -0.2561349E-01   -0.2561651E-01   -0.2311400E-01   -0.1835073E-01
 -0.1179269E-01   -0.4081645E-02    0.4027913E-02    0.1174214E-01    0.1830552E-01    0.2307549E-01    0.2558491E-01    0.2558786E-01    0.2308435E-01    0.1831958E-01
  0.1175994E-01    0.4047972E-02    0.4049249E-02    0.1176124E-01    0.1832071E-01    0.2308538E-01    0.2558858E-01    0.2558493E-01    0.2307476E-01    0.1830391E-01
  0.1173968E-01    0.4025229E-02   -0.4084007E-02   -0.1179446E-01   -0.1835155E-01   -0.2311390E-01   -0.2561578E-01   -0.2561217E-01   -0.2310334E-01   -0.1833489E-01
 -0.1177311E-01   -0.4060091E-02    0.1176396E-01    0.3414584E-01    0.5318431E-01    0.6701544E-01    0.7428481E-01    0.7428050E-01    0.6700277E-01    0.5316406E-01
  0.3411971E-01    0.1173464E-01   -0.1179968E-01   -0.3417942E-01   -0.5321453E-01   -0.6704259E-01   -0.7431010E-01   -0.7430578E-01   -0.6703019E-01   -0.5319482E-01
 -0.3415370E-01   -0.1177078E-01    0.1832594E-01    0.5318714E-01    0.8284112E-01    0.1043847E+00    0.1157084E+00    0.1157034E+00    0.1043698E+00    0.8281733E-01
  0.5315651E-01    0.1829163E-01   -0.1836386E-01   -0.5322167E-01   -0.8287099E-01   -0.1044104E+00   -0.1157315E+00   -0.1157267E+00   -0.1043961E+00   -0.8284790E-01
 -0.5319151E-01   -0.1832944E-01    0.2309409E-01    0.6702197E-01    0.1043884E+00    0.1315354E+00    0.1458046E+00    0.1457990E+00    0.1315185E+00    0.1043612E+00
  0.6698683E-01    0.2305509E-01   -0.2313383E-01   -0.6705726E-01   -0.1044176E+00   -0.1315595E+00   -0.1458256E+00   -0.1458201E+00   -0.1315437E+00   -0.1043919E+00
 -0.6702293E-01   -0.2309505E-01    0.2560196E-01    0.7429602E-01    0.1157171E+00    0.1458099E+00    0.1616273E+00    0.1616211E+00    0.1457912E+00    0.1156866E+00
  0.7425732E-01    0.2556057E-01   -0.2564270E-01   -0.7433164E-01   -0.1157452E+00   -0.1458330E+00   -0.1616463E+00   -0.1616401E+00   -0.1458161E+00   -0.1157174E+00
 -0.7429328E-01   -0.2560050E-01    0.2494743E-03    0.1399664E-02    0.3254723E-02    0.5114707E-02    0.6287832E-02    0.6251008E-02    0.5043574E-02    0.3142773E-02
  0.1162670E-02   -0.1815982E-03    0.4177629E-04    0.1220034E-02    0.3130615E-02    0.5109676E-02    0.6229906E-02    0.6233843E-02    0.5165210E-02    0.3194370E-02
  0.1282824E-02    0.2568017E-03    0.1410560E-02    0.2568468E-02    0.4434101E-02    0.6299492E-02    0.7463936E-02    0.7433421E-02    0.6228843E-02    0.4322506E-02
  0.2370936E-02    0.1142762E-02    0.1236001E-02    0.2414631E-02    0.4308240E-02    0.6272057E-02    0.7418281E-02    0.7405181E-02    0.6315887E-02    0.4378490E-02
  0.2450975E-02    0.1386558E-02    0.3264815E-02    0.4436575E-02    0.6318643E-02    0.8184621E-02    0.9346396E-02    0.9329458E-02    0.8123820E-02    0.6223523E-02
  0.4300427E-02    0.3092392E-02    0.3147204E-02    0.4328980E-02    0.6205694E-02    0.8157267E-02    0.9324928E-02    0.9291531E-02    0.8188781E-02    0.6287200E-02
  0.4329584E-02    0.3228741E-02    0.5139479E-02    0.6312394E-02    0.8192939E-02    0.1006054E-01    0.1123567E-01    0.1121645E-01    0.1001393E-01    0.8135048E-02
  0.6211227E-02    0.5007516E-02    0.5063886E-02    0.6228918E-02    0.8100651E-02    0.1006018E-01    0.1121101E-01    0.1117606E-01    0.1009009E-01    0.8166852E-02