 TITLE = "NAVIER-STOKES OUTPUT"
 VARIABLES = "X", "Y", "U", "V", "P", "Pex", "Vor"
 ZONE I =   21, J =   21, DATAPACKING = BLOCK, VARLOCATION=(3=CELLCENTERED, 4=CELLCENTERED,5=CELLCENTERED,6=CELLCENTERED, 7=CELLCENTERED)
  0.0000000E+00    0.3141593E+00    0.6283185E+00    0.9424778E+00    0.1256637E+01    0.1570796E+01    0.1884956E+01    0.2199115E+01    0.2513274E+01    0.2827433E+01
  0.3141593E+01    0.3455752E+01    0.3769911E+01    0.4084071E+01    0.4398230E+01    0.4712389E+01    0.5026548E+01    0.5340708E+01    0.5654867E+01    0.5969026E+01
  0.6283185E+01    0.0000000E+00    0.3141593E+00    0.6283185E+00    0.9424778E+00    0.1256637E+01    0.1570796E+01    0.1884956E+01    0.2199115E+01    0.2513274E+01
  0.2827433E+01    0.3141593E+01    0.3455752E+01    0.3769911E+01    0.4084071E+01    0.4398230E+01    0.4712389E+01    0.5026548E+01    0.5340708E+01    0.5654867E+01
  0.5969026E+01    0.6283185E+01    0.0000000E+00    0.3141593E+00    0.6283185E+00    0.9424778E+00    0.1256637E+01    0.1570796E+01    0.1884956E+01    0.2199115E+01
  0.2513274E+01    0.2827433E+01    0.3141593E+01    0.3455752E+01    0.3769911E+01    0.4084071E+01    0.4398230E+01    0.4712389E+01    0.5026548E+01    0.5340708E+01
  0.5654867E+01    0.5969026E+01    0.6283185E+01    0.0000000E+00    0.3141593E+00    0.6283185E+00    0.9424778E+00    0.1256637E+01    0.1570796E+01    0.1884956E+01
  0.2199115E+01    0.2513274E+01    0.2827433E+01    0.3141593E+01    0.3455752E+01    0.3769911E+01    0.4084071E+01    0.4398230E+01    0.4712389E+01    0.5026548E+01
  0.5340708E+01    0.5654867E+01    0.5969026E+01    0.6283185E+01    0.0000000E+00    0.3141593E+00    0.6283185E+00    0.9424778E+00    0.1256637E+01    0.1570796E+01
  0.1884956E+01    0.2199115E+01    0.2513274E+01    0.2827433E+01    0.3141593E+01    0.3455752E+01    0.3769911E+01    0.4084071E+01    0.4398230E+01    0.4712389E+01
  0.5026548E+01    0.5340708E+01    0.5654867E+01    0.5969026E+01    0.6283185E+01    0.0000000E+00    0.3141593E+00    0.6283185E+00    0.9424778E+00    0.1256637E+01
  0.1570796E+01    0.1884956E+01    0.2199115E+01    0.2513274E+01    0.2827433E+01    0.3141593E+01    0.3455752E+01    0.3769911E+01    0.4084071E+01    0.4398230E+01
  0.4712389E+01    0.5026548E+01    0.5340708E+01    0.5654867E+01    0.5969026E+01    0.6283185E+01    0.0000000E+00    0.3141593E+00    0.6283185E+00    0.9424778E+00
  0.1256637E+01    0.1570796E+01    0.1884956E+01    0.2199115E+01    0.2513274E+01    0.2827433E+01    0.3141593E+01    0.3455752E+01    0.3769911E+01    0.4084071E+01
  0.4398230E+01    0.4712389E+01    0.5026548E+01    0.5340708E+01    0.5654867E+01    0.5969026E+01    0.6283185E+01    0.0000000E+00    0.3141593E+00    0.6283185E+00
  0.9424778E+00    0.1256637E+01    0.1570796E+01    0.1884956E+01    0.2199115E+01    0.2513274E+01    0.2827433E+01    0.3141593E+01    0.3455752E+01    0.3769911E+01
  0.4084071E+01    0.4398230E+01    0.4712389E+01    0.5026548E+01    0.5340708E+01    0.5654867E+01    0.5969026E+01    0.6283185E+01    0.0000000E+00    0.3141593E+00
  0.6283185E+00    0.9424778E+00    0.1256637E+01    0.1570796E+01    0.1884956E+01    0.2199115E+01    0.2513274E+01    0.2827433E+01    0.3141593E+01    0.3455752E+01
  0.3769911E+01    0.4084071E+01    0.4398230E+01    0.4712389E+01    0.5026548E+01    0.5340708E+01    0.5654867E+01    0.5969026E+01    0.6283185E+01    0.0000000E+00
  0.3141593E+00    0.6283185E+00    0.9424778E+00    0.1256637E+01    0.1570796E+01    0.1884956E+01    0.2199115E+01    0.2513274E+01    0.2827433E+01    0.3141593E+01
  0.3455752E+01    0.3769911E+01    0.4084071E+01    0.4398230E+01    0.4712389E+01    0.5026548E+01    0.5340708E+01    0.5654867E+01    0.5969026E+01    0.6283185E+01
  0.0000000E+00    0.3141593E+00    0.6283185E+00    0.9424778E+00    0.1256637E+01    0.1570796E+01    0.1884956E+01    0.2199115E+01    0.2513274E+01    0.2827433E+01
  0.3141593E+01    0.3455752E+01    0.3769911E+01    0.4084071E+01    0.4398230E+01    0.4712389E+01    0.5026548E+01    0.5340708E+01    0.5654867E+01    0.5969026E+01
  0.6283185E+01    0.0000000E+00    0.3141593E+00    0.6283185E+00    0.9424778E+00    0.1256637E+01    0.1570796E+01    0.1884956E+01    0.2199115E+01    0.2513274E+01
  0.2827433E+01    0.3141593E+01    0.3455752E+01    0.3769911E+01    0.4084071E+01    0.4398230E+01    0.4712389E+01    0.5026548E+01    0.5340708E+01    0.5654867E+01
  0.5969026E+01    0.6283185E+01    0.0000000E+00    0.3141593E+00    0.6283185E+00    0.9424778E+00    0.1256637E+01    0.1570796E+01    0.1884956E+01    0.2199115E+01
  0.2513274E+01    0.2827433E+01    0.3141593E+01    0.3455752E+01    0.3769911E+01    0.4084071E+01    0.4398230E+01    0.4712389E+01    0.5026548E+01    0.5340708E+01
  0.5654867E+01    0.5969026E+01    0.6283185E+01    0.0000000E+00    0.3141593E+00    0.6283185E+00    0.9424778E+00    0.1256637E+01    0.1570796E+01    0.1884956E+01
  0.2199115E+01    0.2513274E+01    0.2827433E+01    0.3141593E+01    0.3455752E+01    0.3769911E+01    0.4084071E+01    0.4398230E+01    0.4712389E+01    0.5026548E+01
  0.5340708E+01    0.5654867E+01    0.5969026E+01    0.6283185E+01    0.0000000E+00    0.3141593E+00    0.6283185E+00    0.9424778E+00    0.1256637E+01    0.1570796E+01
  0.1884956E+01    0.2199115E+01    0.2513274E+01    0.2827433E+01    0.3141593E+01    0.3455752E+01    0.3769911E+01    0.4084071E+01    0.4398230E+01    0.4712389E+01
  0.5026548E+01    0.5340708E+01    0.5654867E+01    0.5969026E+01    0.6283185E+01    0.0000000E+00    0.3141593E+00    0.6283185E+00    0.9424778E+00    0.1256637E+01
  0.1570796E+01    0.1884956E+01    0.2199115E+01    0.2513274E+01    0.2827433E+01    0.3141593E+01    0.3455752E+01    0.3769911E+01    0.4084071E+01    0.4398230E+01
  0.4712389E+01    0.5026548E+01    0.5340708E+01    0.5654867E+01    0.5969026E+01    0.6283185E+01    0.0000000E+00    0.3141593E+00    0.6283185E+00    0.9424778E+00
  0.1256637E+01    0.1570796E+01    0.1884956E+01    0.2199115E+01    0.2513274E+01    0.2827433E+01    0.3141593E+01    0.3455752E+01    0.3769911E+01    0.4084071E+01
  0.4398230E+01    0.4712389E+01    0.5026548E+01    0.5340708E+01    0.5654867E+01    0.5969026E+01    0.6283185E+01    0.0000000E+00    0.3141593E+00    0.6283185E+00
  0.9424778E+00    0.1256637E+01    0.1570796E+01    0.1884956E+01    0.2199115E+01    0.2513274E+01    0.2827433E+01    0.3141593E+01    0.3455752E+01    0.3769911E+01
  0.4084071E+01    0.4398230E+01    0.4712389E+01    0.5026548E+01    0.5340708E+01    0.5654867E+01    0.5969026E+01    0.6283185E+01    0.0000000E+00    0.3141593E+00
  0.6283185E+00    0.9424778E+00    0.1256637E+01    0.1570796E+01    0.1884956E+01    0.2199115E+01    0.2513274E+01    0.2827433E+01    0.3141593E+01    0.3455752E+01
  0.3769911E+01    0.4084071E+01    0.4398230E+01    0.4712389E+01    0.5026548E+01    0.5340708E+01    0.5654867E+01    0.5969026E+01    0.6283185E+01    0.0000000E+00
  0.3141593E+00    0.6283185E+00    0.9424778E+00    0.1256637E+01    0.1570796E+01    0.1884956E+01    0.2199115E+01    0.2513274E+01    0.2827433E+01    0.3141593E+01
  0.3455752E+01    0.3769911E+01    0.4084071E+01    0.4398230E+01    0.4712389E+01    0.5026548E+01    0.5340708E+01    0.5654867E+01    0.5969026E+01    0.6283185E+01
  0.0000000E+00    0.3141593E+00    0.6283185E+00    0.9424778E+00    0.1256637E+01    0.1570796E+01    0.1884956E+01    0.2199115E+01    0.2513274E+01    0.2827433E+01
  0.3141593E+01    0.3455752E+01    0.3769911E+01    0.4084071E+01    0.4398230E+01    0.4712389E+01    0.5026548E+01    0.5340708E+01    0.5654867E+01    0.5969026E+01
  0.6283185E+01    0.0000000E+00    0.0000000E+00    0.0000000E+00    0.0000000E+00    0.0000000E+00    0.0000000E+00    0.0000000E+00    0.0000000E+00    0.0000000E+00
  0.0000000E+00    0.0000000E+00    0.0000000E+00    0.0000000E+00    0.0000000E+00    0.0000000E+00    0.0000000E+00    0.0000000E+00    0.0000000E+00    0.0000000E+00
  0.0000000E+00    0.0000000E+00    0.3141593E+00    0.3141593E+00    0.3141593E+00    0.3141593E+00    0.3141593E+00    0.3141593E+00    0.3141593E+00    0.3141593E+00
  0.3141593E+00    0.3141593E+00    0.3141593E+00    0.3141593E+00    0.3141593E+00    0.3141593E+00    0.3141593E+00    0.3141593E+00    0.3141593E+00    0.3141593E+00
  0.3141593E+00    0.3141593E+00    0.3141593E+00    0.6283185E+00    0.6283185E+00    0.6283185E+00    0.6283185E+00    0.6283185E+00    0.6283185E+00    0.6283185E+00
  0.6283185E+00    0.6283185E+00    0.6283185E+00    0.6283185E+00    0.6283185E+00    0.6283185E+00    0.6283185E+00    0.6283185E+00    0.6283185E+00    0.6283185E+00
  0.6283185E+00    0.6283185E+00    0.6283185E+00    0.6283185E+00    0.9424778E+00    0.9424778E+00    0.9424778E+00    0.9424778E+00    0.9424778E+00    0.9424778E+00
  0.9424778E+00    0.9424778E+00    0.9424778E+00    0.9424778E+00    0.9424778E+00    0.9424778E+00    0.9424778E+00    0.9424778E+00    0.9424778E+00    0.9424778E+00
  0.9424778E+00    0.9424778E+00    0.9424778E+00    0.9424778E+00    0.9424778E+00    0.1256637E+01    0.1256637E+01    0.1256637E+01    0.1256637E+01    0.1256637E+01
  0.1256637E+01    0.1256637E+01    0.1256637E+01    0.1256637E+01    0.1256637E+01    0.1256637E+01    0.1256637E+01    0.1256637E+01    0.1256637E+01    0.1256637E+01
  0.1256637E+01    0.1256637E+01    0.1256637E+01    0.1256637E+01    0.1256637E+01    0.1256637E+01    0.1570796E+01    0.1570796E+01    0.1570796E+01    0.1570796E+01
  0.1570796E+01    0.1570796E+01    0.1570796E+01    0.1570796E+01    0.1570796E+01    0.1570796E+01    0.1570796E+01    0.1570796E+01    0.1570796E+01    0.1570796E+01
  0.1570796E+01    0.1570796E+01    0.1570796E+01    0.1570796E+01    0.1570796E+01    0.1570796E+01    0.1570796E+01    0.1884956E+01    0.1884956E+01    0.1884956E+01
  0.1884956E+01    0.1884956E+01    0.1884956E+01    0.1884956E+01    0.1884956E+01    0.1884956E+01    0.1884956E+01    0.1884956E+01    0.1884956E+01    0.1884956E+01
  0.1884956E+01    0.1884956E+01    0.1884956E+01    0.1884956E+01    0.1884956E+01    0.1884956E+01    0.1884956E+01    0.1884956E+01    0.2199115E+01    0.2199115E+01
  0.2199115E+01    0.2199115E+01    0.2199115E+01    0.2199115E+01    0.2199115E+01    0.2199115E+01    0.2199115E+01    0.2199115E+01    0.2199115E+01    0.2199115E+01
  0.2199115E+01    0.2199115E+01    0.2199115E+01    0.2199115E+01    0.2199115E+01    0.2199115E+01    0.2199115E+01    0.2199115E+01    0.2199115E+01    0.2513274E+01
  0.2513274E+01    0.2513274E+01    0.2513274E+01    0.2513274E+01    0.2513274E+01    0.2513274E+01    0.2513274E+01    0.2513274E+01    0.2513274E+01    0.2513274E+01
  0.2513274E+01    0.2513274E+01    0.2513274E+01    0.2513274E+01    0.2513274E+01    0.2513274E+01    0.2513274E+01    0.2513274E+01    0.2513274E+01    0.2513274E+01
  0.2827433E+01    0.2827433E+01    0.2827433E+01    0.2827433E+01    0.2827433E+01    0.2827433E+01    0.2827433E+01    0.2827433E+01    0.2827433E+01    0.2827433E+01
  0.2827433E+01    0.2827433E+01    0.2827433E+01    0.2827433E+01    0.2827433E+01    0.2827433E+01    0.2827433E+01    0.2827433E+01    0.2827433E+01    0.2827433E+01
  0.2827433E+01    0.3141593E+01    0.3141593E+01    0.3141593E+01    0.3141593E+01    0.3141593E+01    0.3141593E+01    0.3141593E+01    0.3141593E+01    0.3141593E+01
  0.3141593E+01    0.3141593E+01    0.3141593E+01    0.3141593E+01    0.3141593E+01    0.3141593E+01    0.3141593E+01    0.3141593E+01    0.3141593E+01    0.3141593E+01
  0.3141593E+01    0.3141593E+01    0.3455752E+01    0.3455752E+01    0.3455752E+01    0.3455752E+01    0.3455752E+01    0.3455752E+01    0.3455752E+01    0.3455752E+01
  0.3455752E+01    0.3455752E+01    0.3455752E+01    0.3455752E+01    0.3455752E+01    0.3455752E+01    0.3455752E+01    0.3455752E+01    0.3455752E+01    0.3455752E+01
  0.3455752E+01    0.3455752E+01    0.3455752E+01    0.3769911E+01    0.3769911E+01    0.3769911E+01    0.3769911E+01    0.3769911E+01    0.3769911E+01    0.3769911E+01
  0.3769911E+01    0.3769911E+01    0.3769911E+01    0.3769911E+01    0.3769911E+01    0.3769911E+01    0.3769911E+01    0.3769911E+01    0.3769911E+01    0.3769911E+01
  0.3769911E+01    0.3769911E+01    0.3769911E+01    0.3769911E+01    0.4084071E+01    0.4084071E+01    0.4084071E+01    0.4084071E+01    0.4084071E+01    0.4084071E+01
  0.4084071E+01    0.4084071E+01    0.4084071E+01    0.4084071E+01    0.4084071E+01    0.4084071E+01    0.4084071E+01    0.4084071E+01    0.4084071E+01    0.4084071E+01
  0.4084071E+01    0.4084071E+01    0.4084071E+01    0.4084071E+01    0.4084071E+01    0.4398230E+01    0.4398230E+01    0.4398230E+01    0.4398230E+01    0.4398230E+01
  0.4398230E+01    0.4398230E+01    0.4398230E+01    0.4398230E+01    0.4398230E+01    0.4398230E+01    0.4398230E+01    0.4398230E+01    0.4398230E+01    0.4398230E+01
  0.4398230E+01    0.4398230E+01    0.4398230E+01    0.4398230E+01    0.4398230E+01    0.4398230E+01    0.4712389E+01    0.4712389E+01    0.4712389E+01    0.4712389E+01
  0.4712389E+01    0.4712389E+01    0.4712389E+01    0.4712389E+01    0.4712389E+01    0.4712389E+01    0.4712389E+01    0.4712389E+01    0.4712389E+01    0.4712389E+01
  0.4712389E+01    0.4712389E+01    0.4712389E+01    0.4712389E+01    0.4712389E+01    0.4712389E+01    0.4712389E+01    0.5026548E+01    0.5026548E+01    0.5026548E+01
  0.5026548E+01    0.5026548E+01    0.5026548E+01    0.5026548E+01    0.5026548E+01    0.5026548E+01    0.5026548E+01    0.5026548E+01    0.5026548E+01    0.5026548E+01
  0.5026548E+01    0.5026548E+01    0.5026548E+01    0.5026548E+01    0.5026548E+01    0.5026548E+01    0.5026548E+01    0.5026548E+01    0.5340708E+01    0.5340708E+01
  0.5340708E+01    0.5340708E+01    0.5340708E+01    0.5340708E+01    0.5340708E+01    0.5340708E+01    0.5340708E+01    0.5340708E+01    0.5340708E+01    0.5340708E+01
  0.5340708E+01    0.5340708E+01    0.5340708E+01    0.5340708E+01    0.5340708E+01    0.5340708E+01    0.5340708E+01    0.5340708E+01    0.5340708E+01    0.5654867E+01
  0.5654867E+01    0.5654867E+01    0.5654867E+01    0.5654867E+01    0.5654867E+01    0.5654867E+01    0.5654867E+01    0.5654867E+01    0.5654867E+01    0.5654867E+01
  0.5654867E+01    0.5654867E+01    0.5654867E+01    0.5654867E+01    0.5654867E+01    0.5654867E+01    0.5654867E+01    0.5654867E+01    0.5654867E+01    0.5654867E+01
  0.5969026E+01    0.5969026E+01    0.5969026E+01    0.5969026E+01    0.5969026E+01    0.5969026E+01    0.5969026E+01    0.5969026E+01    0.5969026E+01    0.5969026E+01
  0.5969026E+01    0.5969026E+01    0.5969026E+01    0.5969026E+01    0.5969026E+01    0.5969026E+01    0.5969026E+01    0.5969026E+01    0.5969026E+01    0.5969026E+01
  0.5969026E+01    0.6283185E+01    0.6283185E+01    0.6283185E+01    0.6283185E+01    0.6283185E+01    0.6283185E+01    0.6283185E+01    0.6283185E+01    0.6283185E+01
  0.6283185E+01    0.6283185E+01    0.6283185E+01    0.6283185E+01    0.6283185E+01    0.6283185E+01    0.6283185E+01    0.6283185E+01    0.6283185E+01    0.6283185E+01
  0.6283185E+01    0.6283185E+01   -0.5125295E-01   -0.4623392E-01   -0.3668787E-01   -0.2354947E-01   -0.8104717E-02    0.8136167E-02    0.2358519E-01    0.3673191E-01
  0.4628709E-01    0.5126121E-01    0.5121626E-01    0.4620892E-01    0.3667548E-01    0.2354400E-01    0.8104938E-02   -0.8129537E-02   -0.2357226E-01   -0.3670728E-01
 -0.4624954E-01   -0.5126887E-01   -0.1487485E+00   -0.1341853E+00   -0.1064851E+00   -0.6835931E-01   -0.2353929E-01    0.2358886E-01    0.6841261E-01    0.1065428E+00
  0.1342382E+00    0.1487635E+00    0.1487257E+00    0.1341595E+00    0.1064673E+00    0.6835054E-01    0.2354014E-01   -0.2357756E-01   -0.6839073E-01   -0.1065105E+00
 -0.1342056E+00   -0.1487663E+00   -0.2316834E+00   -0.2090016E+00   -0.1658589E+00   -0.1064779E+00   -0.3667083E-01    0.3672958E-01    0.1065378E+00    0.1659174E+00
  0.2090490E+00    0.2317024E+00    0.2316744E+00    0.2089830E+00    0.1658425E+00    0.1064690E+00    0.3667193E-01   -0.3671736E-01   -0.1065154E+00   -0.1658887E+00
 -0.2090255E+00   -0.2317033E+00   -0.2919415E+00   -0.2633604E+00   -0.2089977E+00   -0.1341744E+00   -0.4621412E-01    0.4627281E-01    0.1342320E+00    0.2090505E+00
  0.2634006E+00    0.2919596E+00    0.2919390E+00    0.2633485E+00    0.2089851E+00    0.1341667E+00    0.4621480E-01   -0.4626273E-01   -0.1342141E+00   -0.2090294E+00
 -0.2633855E+00   -0.2919616E+00   -0.3236217E+00   -0.2919392E+00   -0.2316782E+00   -0.1487369E+00   -0.5123387E-01    0.5128636E-01    0.1487872E+00    0.2317225E+00
  0.2919719E+00    0.3236371E+00    0.3236221E+00    0.2919321E+00    0.2316692E+00    0.1487307E+00    0.5123360E-01   -0.5127982E-01   -0.1487753E+00   -0.2317092E+00
 -0.2919634E+00   -0.3236394E+00   -0.3236211E+00   -0.2919397E+00   -0.2316796E+00   -0.1487393E+00   -0.5123752E-01    0.5128109E-01    0.1487804E+00    0.2317150E+00
  0.2919658E+00    0.3236348E+00    0.3236239E+00    0.2919360E+00    0.2316735E+00    0.1487343E+00    0.5123614E-01   -0.5127810E-01   -0.1487742E+00   -0.2317086E+00
 -0.2919629E+00   -0.3236392E+00   -0.2919434E+00   -0.2633630E+00   -0.2090017E+00   -0.1341807E+00   -0.4622395E-01    0.4625840E-01    0.1342128E+00    0.2090289E+00
  0.2633826E+00    0.2919534E+00    0.2919454E+00    0.2633607E+00    0.2089973E+00    0.1341765E+00    0.4622172E-01   -0.4625823E-01   -0.1342112E+00   -0.2090277E+00
 -0.2633845E+00   -0.2919610E+00   -0.2316872E+00   -0.2090052E+00   -0.1658639E+00   -0.1064859E+00   -0.3668360E-01    0.3671011E-01    0.1065104E+00    0.1658844E+00
  0.2090197E+00    0.2316940E+00    0.2316883E+00    0.2090037E+00    0.1658608E+00    0.1064826E+00    0.3668100E-01   -0.3671176E-01   -0.1065117E+00   -0.1658864E+00
 -0.2090240E+00   -0.2317016E+00   -0.1487485E+00   -0.1341867E+00   -0.1064886E+00   -0.6836592E-01   -0.2355049E-01    0.2357061E-01    0.6838452E-01    0.1065042E+00
  0.1341981E+00    0.1487555E+00    0.1487514E+00    0.1341866E+00    0.1064869E+00    0.6836349E-01    0.2354794E-01   -0.2357309E-01   -0.6838738E-01   -0.1065082E+00
 -0.1342039E+00   -0.1487634E+00   -0.5125116E-01   -0.4623300E-01   -0.3668866E-01   -0.2355251E-01   -0.8110521E-02    0.8125676E-02    0.2356650E-01    0.3670031E-01
  0.4624153E-01    0.5125610E-01    0.5125321E-01    0.4623339E-01    0.3668789E-01    0.2355091E-01    0.8108408E-02   -0.8128316E-02   -0.2357014E-01   -0.3670537E-01
 -0.4624859E-01   -0.5126609E-01    0.5126375E-01    0.4624720E-01    0.3670366E-01    0.2356749E-01    0.8124627E-02   -0.8113361E-02   -0.2355712E-01   -0.3669494E-01
 -0.4624084E-01   -0.5126045E-01   -0.5126234E-01   -0.4624633E-01   -0.3670357E-01   -0.2356818E-01   -0.8126086E-02    0.8110901E-02    0.2355342E-01    0.3668982E-01
  0.4623414E-01    0.5125244E-01    0.1487645E+00    0.1342022E+00    0.1065042E+00    0.6838149E-01    0.2356535E-01   -0.2355737E-01   -0.6837399E-01   -0.1064977E+00
 -0.1341965E+00   -0.1487592E+00   -0.1487603E+00   -0.1341998E+00   -0.1065030E+00   -0.6838121E-01   -0.2356620E-01    0.2355527E-01    0.6837042E-01    0.1064925E+00
  0.1341900E+00    0.1487519E+00    0.2317000E+00    0.2090198E+00    0.1658797E+00    0.1065023E+00    0.3669984E-01   -0.3669491E-01   -0.1064976E+00   -0.1658755E+00
 -0.2090161E+00   -0.2316966E+00   -0.2316970E+00   -0.2090173E+00   -0.1658778E+00   -0.1065014E+00   -0.3670015E-01    0.3669305E-01    0.1064939E+00    0.1658699E+00
  0.2090086E+00    0.2316867E+00    0.2919557E+00    0.2633777E+00    0.2090182E+00    0.1341984E+00    0.4624226E-01   -0.4624034E-01   -0.1341966E+00   -0.2090164E+00
 -0.2633760E+00   -0.2919543E+00   -0.2919538E+00   -0.2633751E+00   -0.2090157E+00   -0.1341967E+00   -0.4624215E-01    0.4623841E-01    0.1341925E+00    0.2090106E+00
  0.2633688E+00    0.2919468E+00    0.3236377E+00    0.2919564E+00    0.2316974E+00    0.1487586E+00    0.5125837E-01   -0.5125947E-01   -0.1487596E+00   -0.2316977E+00
 -0.2919553E+00   -0.3236337E+00   -0.3236325E+00   -0.2919521E+00   -0.2316937E+00   -0.1487563E+00   -0.5125811E-01    0.5125724E-01    0.1487548E+00    0.2316909E+00
  0.2919475E+00    0.3236264E+00    0.3236348E+00    0.2919548E+00    0.2316963E+00    0.1487576E+00    0.5125708E-01   -0.5126099E-01   -0.1487613E+00   -0.2316994E+00
 -0.2919564E+00   -0.3236341E+00   -0.3236320E+00   -0.2919507E+00   -0.2316921E+00   -0.1487548E+00   -0.5125676E-01    0.5125813E-01    0.1487551E+00    0.2316907E+00
  0.2919461E+00    0.3236223E+00    0.2919533E+00    0.2633755E+00    0.2090159E+00    0.1341956E+00    0.4623889E-01   -0.4624450E-01   -0.1342012E+00   -0.2090209E+00
 -0.2633793E+00   -0.2919553E+00   -0.2919523E+00   -0.2633714E+00   -0.2090111E+00   -0.1341922E+00   -0.4623855E-01    0.4624081E-01    0.1341938E+00    0.2090108E+00
  0.2633684E+00    0.2919463E+00    0.2317002E+00    0.2090181E+00    0.1658770E+00    0.1064989E+00    0.3669556E-01   -0.3670032E-01   -0.1065038E+00   -0.1658814E+00
 -0.2090204E+00   -0.2316979E+00   -0.2316948E+00   -0.2090123E+00   -0.1658713E+00   -0.1064949E+00   -0.3669530E-01    0.3669632E-01    0.1064956E+00    0.1658700E+00
  0.2090087E+00    0.2316887E+00    0.1487594E+00    0.1341984E+00    0.1065011E+00    0.6837851E-01    0.2356201E-01   -0.2356140E-01   -0.6837835E-01   -0.1065014E+00
 -0.1341988E+00   -0.1487601E+00   -0.1487594E+00   -0.1341960E+00   -0.1064971E+00   -0.6837523E-01   -0.2356176E-01    0.2355817E-01    0.6837153E-01    0.1064911E+00
  0.1341866E+00    0.1487453E+00    0.5125804E-01    0.4624384E-01    0.3670174E-01    0.2356680E-01    0.8124936E-02   -0.8112192E-02   -0.2355390E-01   -0.3668848E-01
 -0.4623250E-01   -0.5125961E-01   -0.5126862E-01   -0.4625020E-01   -0.3670334E-01   -0.2356588E-01   -0.8124814E-02    0.8112020E-02    0.2355396E-01    0.3668762E-01
  0.4623159E-01    0.5125056E-01    0.5126828E-01    0.1487688E+00    0.2317085E+00    0.2919668E+00    0.3236451E+00    0.3236411E+00    0.2919482E+00    0.2316600E+00
  0.1486587E+00    0.5101659E-01   -0.5136974E-01   -0.1488055E+00   -0.2317141E+00   -0.2919562E+00   -0.3236224E+00   -0.3236205E+00   -0.2919411E+00   -0.2316779E+00
 -0.1487447E+00   -0.5125048E-01    0.4624939E-01    0.1342054E+00    0.2090258E+00    0.2633853E+00    0.2919618E+00    0.2919554E+00    0.2633611E+00    0.2089702E+00
  0.1340980E+00    0.4607786E-01   -0.4634838E-01   -0.1342532E+00   -0.2090409E+00   -0.2633814E+00   -0.2919476E+00   -0.2919431E+00   -0.2633628E+00   -0.2090012E+00
 -0.1341840E+00   -0.4623137E-01    0.3670413E-01    0.1065057E+00    0.1658827E+00    0.2090217E+00    0.2316983E+00    0.2316903E+00    0.2089942E+00    0.1658273E+00
  0.1064140E+00    0.3658317E-01   -0.3678793E-01   -0.1065559E+00   -0.1659054E+00   -0.2090266E+00   -0.2316948E+00   -0.2316888E+00   -0.2090060E+00   -0.1658647E+00
 -0.1064886E+00   -0.3668845E-01    0.2356613E-01    0.6838075E-01    0.1065022E+00    0.1341978E+00    0.1487549E+00    0.1487465E+00    0.1341707E+00    0.1064526E+00
  0.6830717E-01    0.2347760E-01   -0.2363383E-01   -0.6842795E-01   -0.1065294E+00   -0.1342108E+00   -0.1487615E+00   -0.1487552E+00   -0.1341905E+00   -0.1064914E+00
 -0.6836899E-01   -0.2355433E-01    0.8120866E-02    0.2356233E-01    0.3669701E-01    0.4623828E-01    0.5125106E-01    0.5124318E-01    0.4621398E-01    0.3665537E-01
  0.2350504E-01    0.8055398E-02   -0.8176116E-02   -0.2360499E-01   -0.3672612E-01   -0.4625736E-01   -0.5126576E-01   -0.5125999E-01   -0.4623905E-01   -0.3669337E-01
 -0.2355677E-01   -0.8114630E-02   -0.8118597E-02   -0.2356193E-01   -0.3669973E-01   -0.4624659E-01   -0.5126882E-01   -0.5127571E-01   -0.4626720E-01   -0.3673344E-01
 -0.2360617E-01   -0.8167627E-02    0.8072885E-02    0.2352394E-01    0.3667041E-01    0.4622375E-01    0.5124851E-01    0.5125347E-01    0.4623904E-01    0.3669687E-01
  0.2356160E-01    0.8119149E-02   -0.2356287E-01   -0.6837941E-01   -0.1065036E+00   -0.1342041E+00   -0.1487698E+00   -0.1487756E+00   -0.1342210E+00   -0.1065304E+00
 -0.6841352E-01   -0.2360004E-01    0.2352411E-01    0.6834540E-01    0.1064749E+00    0.1341792E+00    0.1487461E+00    0.1487501E+00    0.1341913E+00    0.1064956E+00
  0.6837420E-01    0.2355906E-01   -0.3670122E-01   -0.1065036E+00   -0.1658821E+00   -0.2090246E+00   -0.2317084E+00   -0.2317131E+00   -0.2090383E+00   -0.1659032E+00
 -0.1065297E+00   -0.3672903E-01    0.3666663E-01    0.1064723E+00    0.1658541E+00    0.2089989E+00    0.2316829E+00    0.2316860E+00    0.2090083E+00    0.1658700E+00
  0.1064941E+00    0.3669311E-01   -0.4624641E-01   -0.1342021E+00   -0.2090228E+00   -0.2633845E+00   -0.2919662E+00   -0.2919700E+00   -0.2633955E+00   -0.2090396E+00
 -0.1342226E+00   -0.4626780E-01    0.4621518E-01    0.1341732E+00    0.2089959E+00    0.2633588E+00    0.2919402E+00    0.2919426E+00    0.2633659E+00    0.2090078E+00
  0.1341895E+00    0.4623484E-01   -0.5126444E-01   -0.1487641E+00   -0.2317031E+00   -0.2919630E+00   -0.3236452E+00   -0.3236483E+00   -0.2919719E+00   -0.2317167E+00
 -0.1487805E+00   -0.5128168E-01    0.5123594E-01    0.1487371E+00    0.2316774E+00    0.2919377E+00    0.3236194E+00    0.3236213E+00    0.2919432E+00    0.2316866E+00
  0.1487498E+00    0.5125143E-01   -0.5126553E-01   -0.1487647E+00   -0.2317033E+00   -0.2919629E+00   -0.3236445E+00   -0.3236471E+00   -0.2919702E+00   -0.2317145E+00
 -0.1487780E+00   -0.5127921E-01    0.5123816E-01    0.1487388E+00    0.2316784E+00    0.2919382E+00    0.3236194E+00    0.3236209E+00    0.2919428E+00    0.2316861E+00
  0.1487492E+00    0.5125110E-01   -0.4624804E-01   -0.1342032E+00   -0.2090232E+00   -0.2633840E+00   -0.2919643E+00   -0.2919665E+00   -0.2633903E+00   -0.2090328E+00
 -0.1342149E+00   -0.4626001E-01    0.4622205E-01    0.1341784E+00    0.2089992E+00    0.2633603E+00    0.2919402E+00    0.2919417E+00    0.2633644E+00    0.2090059E+00
  0.1341875E+00    0.4623279E-01   -0.3670338E-01   -0.1065053E+00   -0.1658830E+00   -0.2090240E+00   -0.2317057E+00   -0.2317076E+00   -0.2090298E+00   -0.1658918E+00
 -0.1065163E+00   -0.3671525E-01    0.3667876E-01    0.1064815E+00    0.1658599E+00    0.2090013E+00    0.2316830E+00    0.2316844E+00    0.2090056E+00    0.1658667E+00
  0.1064906E+00    0.3668955E-01   -0.2356764E-01   -0.6838301E-01   -0.1065057E+00   -0.1342042E+00   -0.1487671E+00   -0.1487689E+00   -0.1342097E+00   -0.1065143E+00
 -0.6839369E-01   -0.2357923E-01    0.2354264E-01    0.6835916E-01    0.1064831E+00    0.1341826E+00    0.1487460E+00    0.1487476E+00    0.1341874E+00    0.1064909E+00
  0.6836933E-01    0.2355464E-01   -0.8124336E-02   -0.2356679E-01   -0.3670329E-01   -0.4624800E-01   -0.5126682E-01   -0.5126869E-01   -0.4625351E-01   -0.3671224E-01
 -0.2357858E-01   -0.8137590E-02    0.8099478E-02    0.2354315E-01    0.3668151E-01    0.4622801E-01    0.5124785E-01    0.5124982E-01    0.4623368E-01    0.3669051E-01
  0.2355485E-01    0.8112397E-02    0.8114314E-02    0.2355598E-01    0.3669151E-01    0.4623476E-01    0.5125117E-01    0.5124930E-01    0.4622897E-01    0.3668157E-01
  0.2354223E-01    0.8097790E-02   -0.8139329E-02   -0.2357965E-01   -0.3671249E-01   -0.4625294E-01   -0.5126733E-01   -0.5126504E-01   -0.4624610E-01   -0.3670136E-01
 -0.2356512E-01   -0.8122954E-02    0.2355631E-01    0.6837159E-01    0.1064939E+00    0.1341911E+00    0.1487518E+00    0.1487500E+00    0.1341851E+00    0.1064831E+00
  0.6835604E-01    0.2353745E-01   -0.2358422E-01   -0.6839670E-01   -0.1065146E+00   -0.1342071E+00   -0.1487646E+00   -0.1487622E+00   -0.1341990E+00   -0.1065008E+00
 -0.6837886E-01   -0.2356351E-01    0.3669335E-01    0.1064947E+00    0.1658717E+00    0.2090118E+00    0.2316915E+00    0.2316897E+00    0.2090058E+00    0.1658600E+00
  0.1064765E+00    0.3667058E-01   -0.3672330E-01   -0.1065209E+00   -0.1658917E+00   -0.2090250E+00   -0.2317002E+00   -0.2316975E+00   -0.2090157E+00   -0.1658757E+00
 -0.1065003E+00   -0.3669983E-01    0.4623845E-01    0.1341927E+00    0.2090122E+00    0.2633721E+00    0.2919510E+00    0.2919496E+00    0.2633664E+00    0.2090000E+00
  0.1341730E+00    0.4621316E-01   -0.4626990E-01   -0.1342201E+00   -0.2090323E+00   -0.2633829E+00   -0.2919554E+00   -0.2919536E+00   -0.2633725E+00   -0.2090128E+00
 -0.1341969E+00   -0.4624220E-01    0.5125340E-01    0.1487526E+00    0.2316915E+00    0.2919501E+00    0.3236311E+00    0.3236299E+00    0.2919446E+00    0.2316793E+00
  0.1487350E+00    0.5123942E-01   -0.5128802E-01   -0.1487836E+00   -0.2317146E+00   -0.2919599E+00   -0.3236327E+00   -0.3236334E+00   -0.2919481E+00   -0.2316901E+00
 -0.1487594E+00   -0.5125753E-01   -0.7335011E-02   -0.2641212E-02    0.4963785E-02    0.1255648E-01    0.1722932E-01    0.1723647E-01    0.1254307E-01    0.4919675E-02
 -0.2715683E-02   -0.7699305E-02   -0.7445022E-02   -0.2638576E-02    0.4979417E-02    0.1250588E-01    0.1726588E-01    0.1729143E-01    0.1251934E-01    0.5024332E-02
 -0.2528823E-02   -0.7326126E-02   -0.2647796E-02    0.2035281E-02    0.9626575E-02    0.1721525E-01    0.2189401E-01    0.2189026E-01    0.1718926E-01    0.9568198E-02
  0.1945411E-02   -0.2809031E-02   -0.2770852E-02    0.1994551E-02    0.9631061E-02    0.1718226E-01    0.2191600E-01    0.2195825E-01    0.1721421E-01    0.9678910E-02
  0.2144995E-02   -0.2610789E-02    0.4962547E-02    0.9629198E-02    0.1720437E-01    0.2479284E-01    0.2947088E-01    0.2945638E-01    0.2476156E-01    0.1714524E-01
  0.9535370E-02    0.4844165E-02    0.4835690E-02    0.9558874E-02    0.1720194E-01    0.2476531E-01    0.2947455E-01    0.2953350E-01    0.2480738E-01    0.1724008E-01
  0.9731754E-02    0.5007399E-02    0.1255177E-01    0.1721985E-01    0.2479701E-01    0.3238290E-01    0.3705182E-01    0.3704224E-01    0.3235004E-01    0.2472736E-01
  0.1713788E-01    0.1246435E-01    0.1243144E-01    0.1714777E-01    0.2478863E-01    0.3233891E-01    0.3705571E-01    0.3711982E-01    0.3238019E-01    0.2482514E-01