 TITLE = "NAVIER-STOKES OUTPUT"
 VARIABLES = "X", "Y", "U", "V", "P", "Pex", "Vor"
 ZONE I =   21, J =   21, DATAPACKING = BLOCK, VARLOCATION=(3=CELLCENTERED, 4=CELLCENTERED,5=CELLCENTERED,6=CELLCENTERED, 7=CELLCENTERED)
  0.0000000E+00    0.3141593E+00    0.6283185E+00    0.9424778E+00    0.1256637E+01    0.1570796E+01    0.1884956E+01    0.2199115E+01    0.2513274E+01    0.2827433E+01
  0.3141593E+01    0.3455752E+01    0.3769911E+01    0.4084071E+01    0.4398230E+01    0.4712389E+01    0.5026548E+01    0.5340708E+01    0.5654867E+01    0.5969026E+01
  0.6283185E+01    0.0000000E+00    0.3141593E+00    0.6283185E+00    0.9424778E+00    0.1256637E+01    0.1570796E+01    0.1884956E+01    0.2199115E+01    0.2513274E+01
  0.2827433E+01    0.3141593E+01    0.3455752E+01    0.3769911E+01    0.4084071E+01    0.4398230E+01    0.4712389E+01    0.5026548E+01    0.5340708E+01    0.5654867E+01
  0.5969026E+01    0.6283185E+01    0.0000000E+00    0.3141593E+00    0.6283185E+00    0.9424778E+00    0.1256637E+01    0.1570796E+01    0.1884956E+01    0.2199115E+01
  0.2513274E+01    0.2827433E+01    0.3141593E+01    0.3455752E+01    0.3769911E+01    0.4084071E+01    0.4398230E+01    0.4712389E+01    0.5026548E+01    0.5340708E+01
  0.5654867E+01    0.5969026E+01    0.6283185E+01    0.0000000E+00    0.3141593E+00    0.6283185E+00    0.9424778E+00    0.1256637E+01    0.1570796E+01    0.1884956E+01
  0.2199115E+01    0.2513274E+01    0.2827433E+01    0.3141593E+01    0.3455752E+01    0.3769911E+01    0.4084071E+01    0.4398230E+01    0.4712389E+01    0.5026548E+01
  0.5340708E+01    0.5654867E+01    0.5969026E+01    0.6283185E+01    0.0000000E+00    0.3141593E+00    0.6283185E+00    0.9424778E+00    0.1256637E+01    0.1570796E+01
  0.1884956E+01    0.2199115E+01    0.2513274E+01    0.2827433E+01    0.3141593E+01    0.3455752E+01    0.3769911E+01    0.4084071E+01    0.4398230E+01    0.4712389E+01
  0.5026548E+01    0.5340708E+01    0.5654867E+01    0.5969026E+01    0.6283185E+01    0.0000000E+00    0.3141593E+00    0.6283185E+00    0.9424778E+00    0.1256637E+01
  0.1570796E+01    0.1884956E+01    0.2199115E+01    0.2513274E+01    0.2827433E+01    0.3141593E+01    0.3455752E+01    0.3769911E+01    0.4084071E+01    0.4398230E+01
  0.4712389E+01    0.5026548E+01    0.5340708E+01    0.5654867E+01    0.5969026E+01    0.6283185E+01    0.0000000E+00    0.3141593E+00    0.6283185E+00    0.9424778E+00
  0.1256637E+01    0.1570796E+01    0.1884956E+01    0.2199115E+01    0.2513274E+01    0.2827433E+01    0.3141593E+01    0.3455752E+01    0.3769911E+01    0.4084071E+01
  0.4398230E+01    0.4712389E+01    0.5026548E+01    0.5340708E+01    0.5654867E+01    0.5969026E+01    0.6283185E+01    0.0000000E+00    0.3141593E+00    0.6283185E+00
  0.9424778E+00    0.1256637E+01    0.1570796E+01    0.1884956E+01    0.2199115E+01    0.2513274E+01    0.2827433E+01    0.3141593E+01    0.3455752E+01    0.3769911E+01
  0.4084071E+01    0.4398230E+01    0.4712389E+01    0.5026548E+01    0.5340708E+01    0.5654867E+01    0.5969026E+01    0.6283185E+01    0.0000000E+00    0.3141593E+00
  0.6283185E+00    0.9424778E+00    0.1256637E+01    0.1570796E+01    0.1884956E+01    0.2199115E+01    0.2513274E+01    0.2827433E+01    0.3141593E+01    0.3455752E+01
  0.3769911E+01    0.4084071E+01    0.4398230E+01    0.4712389E+01    0.5026548E+01    0.5340708E+01    0.5654867E+01    0.5969026E+01    0.6283185E+01    0.0000000E+00
  0.3141593E+00    0.6283185E+00    0.9424778E+00    0.1256637E+01    0.1570796E+01    0.1884956E+01    0.2199115E+01    0.2513274E+01    0.2827433E+01    0.3141593E+01
  0.3455752E+01    0.3769911E+01    0.4084071E+01    0.4398230E+01    0.4712389E+01    0.5026548E+01    0.5340708E+01    0.5654867E+01    0.5969026E+01    0.6283185E+01
  0.0000000E+00    0.3141593E+00    0.6283185E+00    0.9424778E+00    0.1256637E+01    0.1570796E+01    0.1884956E+01    0.2199115E+01    0.2513274E+01    0.2827433E+01
  0.3141593E+01    0.3455752E+01    0.3769911E+01    0.4084071E+01    0.4398230E+01    0.4712389E+01    0.5026548E+01    0.5340708E+01    0.5654867E+01    0.5969026E+01
  0.6283185E+01    0.0000000E+00    0.3141593E+00    0.6283185E+00    0.9424778E+00    0.1256637E+01    0.1570796E+01    0.1884956E+01    0.2199115E+01    0.2513274E+01
  0.2827433E+01    0.3141593E+01    0.3455752E+01    0.3769911E+01    0.4084071E+01    0.4398230E+01    0.4712389E+01    0.5026548E+01    0.5340708E+01    0.5654867E+01
  0.5969026E+01    0.6283185E+01    0.0000000E+00    0.3141593E+00    0.6283185E+00    0.9424778E+00    0.1256637E+01    0.1570796E+01    0.1884956E+01    0.2199115E+01
  0.2513274E+01    0.2827433E+01    0.3141593E+01    0.3455752E+01    0.3769911E+01    0.4084071E+01    0.4398230E+01    0.4712389E+01    0.5026548E+01    0.5340708E+01
  0.5654867E+01    0.5969026E+01    0.6283185E+01    0.0000000E+00    0.3141593E+00    0.6283185E+00    0.9424778E+00    0.1256637E+01    0.1570796E+01    0.1884956E+01
  0.2199115E+01    0.2513274E+01    0.2827433E+01    0.3141593E+01    0.3455752E+01    0.3769911E+01    0.4084071E+01    0.4398230E+01    0.4712389E+01    0.5026548E+01
  0.5340708E+01    0.5654867E+01    0.5969026E+01    0.6283185E+01    0.0000000E+00    0.3141593E+00    0.6283185E+00    0.9424778E+00    0.1256637E+01    0.1570796E+01
  0.1884956E+01    0.2199115E+01    0.2513274E+01    0.2827433E+01    0.3141593E+01    0.3455752E+01    0.3769911E+01    0.4084071E+01    0.4398230E+01    0.4712389E+01
  0.5026548E+01    0.5340708E+01    0.5654867E+01    0.5969026E+01    0.6283185E+01    0.0000000E+00    0.3141593E+00    0.6283185E+00    0.9424778E+00    0.1256637E+01
  0.1570796E+01    0.1884956E+01    0.2199115E+01    0.2513274E+01    0.2827433E+01    0.3141593E+01    0.3455752E+01    0.3769911E+01    0.4084071E+01    0.4398230E+01
  0.4712389E+01    0.5026548E+01    0.5340708E+01    0.5654867E+01    0.5969026E+01    0.6283185E+01    0.0000000E+00    0.3141593E+00    0.6283185E+00    0.9424778E+00
  0.1256637E+01    0.1570796E+01    0.1884956E+01    0.2199115E+01    0.2513274E+01    0.2827433E+01    0.3141593E+01    0.3455752E+01    0.3769911E+01    0.4084071E+01
  0.4398230E+01    0.4712389E+01    0.5026548E+01    0.5340708E+01    0.5654867E+01    0.5969026E+01    0.6283185E+01    0.0000000E+00    0.3141593E+00    0.6283185E+00
  0.9424778E+00    0.1256637E+01    0.1570796E+01    0.1884956E+01    0.2199115E+01    0.2513274E+01    0.2827433E+01    0.3141593E+01    0.3455752E+01    0.3769911E+01
  0.4084071E+01    0.4398230E+01    0.4712389E+01    0.5026548E+01    0.5340708E+01    0.5654867E+01    0.5969026E+01    0.6283185E+01    0.0000000E+00    0.3141593E+00
  0.6283185E+00    0.9424778E+00    0.1256637E+01    0.1570796E+01    0.1884956E+01    0.2199115E+01    0.2513274E+01    0.2827433E+01    0.3141593E+01    0.3455752E+01
  0.3769911E+01    0.4084071E+01    0.4398230E+01    0.4712389E+01    0.5026548E+01    0.5340708E+01    0.5654867E+01    0.5969026E+01    0.6283185E+01    0.0000000E+00
  0.3141593E+00    0.6283185E+00    0.9424778E+00    0.1256637E+01    0.1570796E+01    0.1884956E+01    0.2199115E+01    0.2513274E+01    0.2827433E+01    0.3141593E+01
  0.3455752E+01    0.3769911E+01    0.4084071E+01    0.4398230E+01    0.4712389E+01    0.5026548E+01    0.5340708E+01    0.5654867E+01    0.5969026E+01    0.6283185E+01
  0.0000000E+00    0.3141593E+00    0.6283185E+00    0.9424778E+00    0.1256637E+01    0.1570796E+01    0.1884956E+01    0.2199115E+01    0.2513274E+01    0.2827433E+01
  0.3141593E+01    0.3455752E+01    0.3769911E+01    0.4084071E+01    0.4398230E+01    0.4712389E+01    0.5026548E+01    0.5340708E+01    0.5654867E+01    0.5969026E+01
  0.6283185E+01    0.0000000E+00    0.0000000E+00    0.0000000E+00    0.0000000E+00    0.0000000E+00    0.0000000E+00    0.0000000E+00    0.0000000E+00    0.0000000E+00
  0.0000000E+00    0.0000000E+00    0.0000000E+00    0.0000000E+00    0.0000000E+00    0.0000000E+00    0.0000000E+00    0.0000000E+00    0.0000000E+00    0.0000000E+00
  0.0000000E+00    0.0000000E+00    0.3141593E+00    0.3141593E+00    0.3141593E+00    0.3141593E+00    0.3141593E+00    0.3141593E+00    0.3141593E+00    0.3141593E+00
  0.3141593E+00    0.3141593E+00    0.3141593E+00    0.3141593E+00    0.3141593E+00    0.3141593E+00    0.3141593E+00    0.3141593E+00    0.3141593E+00    0.3141593E+00
  0.3141593E+00    0.3141593E+00    0.3141593E+00    0.6283185E+00    0.6283185E+00    0.6283185E+00    0.6283185E+00    0.6283185E+00    0.6283185E+00    0.6283185E+00
  0.6283185E+00    0.6283185E+00    0.6283185E+00    0.6283185E+00    0.6283185E+00    0.6283185E+00    0.6283185E+00    0.6283185E+00    0.6283185E+00    0.6283185E+00
  0.6283185E+00    0.6283185E+00    0.6283185E+00    0.6283185E+00    0.9424778E+00    0.9424778E+00    0.9424778E+00    0.9424778E+00    0.9424778E+00    0.9424778E+00
  0.9424778E+00    0.9424778E+00    0.9424778E+00    0.9424778E+00    0.9424778E+00    0.9424778E+00    0.9424778E+00    0.9424778E+00    0.9424778E+00    0.9424778E+00
  0.9424778E+00    0.9424778E+00    0.9424778E+00    0.9424778E+00    0.9424778E+00    0.1256637E+01    0.1256637E+01    0.1256637E+01    0.1256637E+01    0.1256637E+01
  0.1256637E+01    0.1256637E+01    0.1256637E+01    0.1256637E+01    0.1256637E+01    0.1256637E+01    0.1256637E+01    0.1256637E+01    0.1256637E+01    0.1256637E+01
  0.1256637E+01    0.1256637E+01    0.1256637E+01    0.1256637E+01    0.1256637E+01    0.1256637E+01    0.1570796E+01    0.1570796E+01    0.1570796E+01    0.1570796E+01
  0.1570796E+01    0.1570796E+01    0.1570796E+01    0.1570796E+01    0.1570796E+01    0.1570796E+01    0.1570796E+01    0.1570796E+01    0.1570796E+01    0.1570796E+01
  0.1570796E+01    0.1570796E+01    0.1570796E+01    0.1570796E+01    0.1570796E+01    0.1570796E+01    0.1570796E+01    0.1884956E+01    0.1884956E+01    0.1884956E+01
  0.1884956E+01    0.1884956E+01    0.1884956E+01    0.1884956E+01    0.1884956E+01    0.1884956E+01    0.1884956E+01    0.1884956E+01    0.1884956E+01    0.1884956E+01
  0.1884956E+01    0.1884956E+01    0.1884956E+01    0.1884956E+01    0.1884956E+01    0.1884956E+01    0.1884956E+01    0.1884956E+01    0.2199115E+01    0.2199115E+01
  0.2199115E+01    0.2199115E+01    0.2199115E+01    0.2199115E+01    0.2199115E+01    0.2199115E+01    0.2199115E+01    0.2199115E+01    0.2199115E+01    0.2199115E+01
  0.2199115E+01    0.2199115E+01    0.2199115E+01    0.2199115E+01    0.2199115E+01    0.2199115E+01    0.2199115E+01    0.2199115E+01    0.2199115E+01    0.2513274E+01
  0.2513274E+01    0.2513274E+01    0.2513274E+01    0.2513274E+01    0.2513274E+01    0.2513274E+01    0.2513274E+01    0.2513274E+01    0.2513274E+01    0.2513274E+01
  0.2513274E+01    0.2513274E+01    0.2513274E+01    0.2513274E+01    0.2513274E+01    0.2513274E+01    0.2513274E+01    0.2513274E+01    0.2513274E+01    0.2513274E+01
  0.2827433E+01    0.2827433E+01    0.2827433E+01    0.2827433E+01    0.2827433E+01    0.2827433E+01    0.2827433E+01    0.2827433E+01    0.2827433E+01    0.2827433E+01
  0.2827433E+01    0.2827433E+01    0.2827433E+01    0.2827433E+01    0.2827433E+01    0.2827433E+01    0.2827433E+01    0.2827433E+01    0.2827433E+01    0.2827433E+01
  0.2827433E+01    0.3141593E+01    0.3141593E+01    0.3141593E+01    0.3141593E+01    0.3141593E+01    0.3141593E+01    0.3141593E+01    0.3141593E+01    0.3141593E+01
  0.3141593E+01    0.3141593E+01    0.3141593E+01    0.3141593E+01    0.3141593E+01    0.3141593E+01    0.3141593E+01    0.3141593E+01    0.3141593E+01    0.3141593E+01
  0.3141593E+01    0.3141593E+01    0.3455752E+01    0.3455752E+01    0.3455752E+01    0.3455752E+01    0.3455752E+01    0.3455752E+01    0.3455752E+01    0.3455752E+01
  0.3455752E+01    0.3455752E+01    0.3455752E+01    0.3455752E+01    0.3455752E+01    0.3455752E+01    0.3455752E+01    0.3455752E+01    0.3455752E+01    0.3455752E+01
  0.3455752E+01    0.3455752E+01    0.3455752E+01    0.3769911E+01    0.3769911E+01    0.3769911E+01    0.3769911E+01    0.3769911E+01    0.3769911E+01    0.3769911E+01
  0.3769911E+01    0.3769911E+01    0.3769911E+01    0.3769911E+01    0.3769911E+01    0.3769911E+01    0.3769911E+01    0.3769911E+01    0.3769911E+01    0.3769911E+01
  0.3769911E+01    0.3769911E+01    0.3769911E+01    0.3769911E+01    0.4084071E+01    0.4084071E+01    0.4084071E+01    0.4084071E+01    0.4084071E+01    0.4084071E+01
  0.4084071E+01    0.4084071E+01    0.4084071E+01    0.4084071E+01    0.4084071E+01    0.4084071E+01    0.4084071E+01    0.4084071E+01    0.4084071E+01    0.4084071E+01
  0.4084071E+01    0.4084071E+01    0.4084071E+01    0.4084071E+01    0.4084071E+01    0.4398230E+01    0.4398230E+01    0.4398230E+01    0.4398230E+01    0.4398230E+01
  0.4398230E+01    0.4398230E+01    0.4398230E+01    0.4398230E+01    0.4398230E+01    0.4398230E+01    0.4398230E+01    0.4398230E+01    0.4398230E+01    0.4398230E+01
  0.4398230E+01    0.4398230E+01    0.4398230E+01    0.4398230E+01    0.4398230E+01    0.4398230E+01    0.4712389E+01    0.4712389E+01    0.4712389E+01    0.4712389E+01
  0.4712389E+01    0.4712389E+01    0.4712389E+01    0.4712389E+01    0.4712389E+01    0.4712389E+01    0.4712389E+01    0.4712389E+01    0.4712389E+01    0.4712389E+01
  0.4712389E+01    0.4712389E+01    0.4712389E+01    0.4712389E+01    0.4712389E+01    0.4712389E+01    0.4712389E+01    0.5026548E+01    0.5026548E+01    0.5026548E+01
  0.5026548E+01    0.5026548E+01    0.5026548E+01    0.5026548E+01    0.5026548E+01    0.5026548E+01    0.5026548E+01    0.5026548E+01    0.5026548E+01    0.5026548E+01
  0.5026548E+01    0.5026548E+01    0.5026548E+01    0.5026548E+01    0.5026548E+01    0.5026548E+01    0.5026548E+01    0.5026548E+01    0.5340708E+01    0.5340708E+01
  0.5340708E+01    0.5340708E+01    0.5340708E+01    0.5340708E+01    0.5340708E+01    0.5340708E+01    0.5340708E+01    0.5340708E+01    0.5340708E+01    0.5340708E+01
  0.5340708E+01    0.5340708E+01    0.5340708E+01    0.5340708E+01    0.5340708E+01    0.5340708E+01    0.5340708E+01    0.5340708E+01    0.5340708E+01    0.5654867E+01
  0.5654867E+01    0.5654867E+01    0.5654867E+01    0.5654867E+01    0.5654867E+01    0.5654867E+01    0.5654867E+01    0.5654867E+01    0.5654867E+01    0.5654867E+01
  0.5654867E+01    0.5654867E+01    0.5654867E+01    0.5654867E+01    0.5654867E+01    0.5654867E+01    0.5654867E+01    0.5654867E+01    0.5654867E+01    0.5654867E+01
  0.5969026E+01    0.5969026E+01    0.5969026E+01    0.5969026E+01    0.5969026E+01    0.5969026E+01    0.5969026E+01    0.5969026E+01    0.5969026E+01    0.5969026E+01
  0.5969026E+01    0.5969026E+01    0.5969026E+01    0.5969026E+01    0.5969026E+01    0.5969026E+01    0.5969026E+01    0.5969026E+01    0.5969026E+01    0.5969026E+01
  0.5969026E+01    0.6283185E+01    0.6283185E+01    0.6283185E+01    0.6283185E+01    0.6283185E+01    0.6283185E+01    0.6283185E+01    0.6283185E+01    0.6283185E+01
  0.6283185E+01    0.6283185E+01    0.6283185E+01    0.6283185E+01    0.6283185E+01    0.6283185E+01    0.6283185E+01    0.6283185E+01    0.6283185E+01    0.6283185E+01
  0.6283185E+01    0.6283185E+01   -0.1251275E+00   -0.1128735E+00   -0.8956790E-01   -0.5749091E-01   -0.1978115E-01    0.1987220E-01    0.5759185E-01    0.8969171E-01
  0.1130231E+00    0.1251529E+00    0.1250303E+00    0.1128063E+00    0.8953101E-01    0.5747584E-01    0.1978318E-01   -0.1985282E-01   -0.5754986E-01   -0.8961768E-01
 -0.1129156E+00   -0.1251619E+00   -0.3631740E+00   -0.3276183E+00   -0.2599903E+00   -0.1669088E+00   -0.5748376E-01    0.5757546E-01    0.1670089E+00    0.2601043E+00
  0.3277302E+00    0.3632029E+00    0.3631206E+00    0.3275650E+00    0.2599563E+00    0.1668938E+00    0.5748569E-01   -0.5755595E-01   -0.1669681E+00   -0.2600401E+00
 -0.3276601E+00   -0.3632081E+00   -0.5656691E+00   -0.5102921E+00   -0.4049617E+00   -0.2599873E+00   -0.8955919E-01    0.8964099E-01    0.2600723E+00    0.4050489E+00
  0.5103667E+00    0.5656961E+00    0.5656499E+00    0.5102632E+00    0.4049395E+00    0.2599766E+00    0.8956080E-01   -0.8962636E-01   -0.2600439E+00   -0.4050097E+00
 -0.5103327E+00   -0.5657024E+00   -0.7127904E+00   -0.6430130E+00   -0.5102906E+00   -0.3276145E+00   -0.1128659E+00    0.1129342E+00    0.3276824E+00    0.5103550E+00
  0.6430644E+00    0.7128145E+00    0.7127889E+00    0.6430016E+00    0.5102794E+00    0.3276086E+00    0.1128671E+00   -0.1129253E+00   -0.3276664E+00   -0.5103358E+00
 -0.6430521E+00   -0.7128235E+00   -0.7901373E+00   -0.7127893E+00   -0.5656664E+00   -0.3631699E+00   -0.1251214E+00    0.1251770E+00    0.3632237E+00    0.5657151E+00
  0.7128273E+00    0.7901587E+00    0.7901436E+00    0.7127878E+00    0.5656628E+00    0.3631677E+00    0.1251223E+00   -0.1251726E+00   -0.3632165E+00   -0.5657084E+00
 -0.7128265E+00   -0.7901698E+00   -0.7901381E+00   -0.7127906E+00   -0.5656685E+00   -0.3631730E+00   -0.1251258E+00    0.1251712E+00    0.3632162E+00    0.5657070E+00
  0.7128210E+00    0.7901574E+00    0.7901478E+00    0.7127945E+00    0.5656694E+00    0.3631731E+00    0.1251265E+00   -0.1251696E+00   -0.3632146E+00   -0.5657071E+00
 -0.7128260E+00   -0.7901698E+00   -0.7127925E+00   -0.6430169E+00   -0.5102967E+00   -0.3276235E+00   -0.1128787E+00    0.1129165E+00    0.3276593E+00    0.5103285E+00
  0.6430427E+00    0.7128108E+00    0.7128041E+00    0.6430236E+00    0.5103002E+00    0.3276252E+00    0.1128794E+00   -0.1129166E+00   -0.3276606E+00   -0.5103324E+00
 -0.6430506E+00   -0.7128238E+00   -0.5656723E+00   -0.5102983E+00   -0.4049712E+00   -0.2600014E+00   -0.8957953E-01    0.8961190E-01    0.2600321E+00    0.4049988E+00
  0.5103212E+00    0.5656897E+00    0.5656846E+00    0.5103066E+00    0.4049763E+00    0.2600041E+00    0.8958036E-01   -0.8961284E-01   -0.2600351E+00   -0.4050046E+00
 -0.5103306E+00   -0.5657033E+00   -0.3631785E+00   -0.3276262E+00   -0.2600023E+00   -0.1669263E+00   -0.5750925E-01    0.5753805E-01    0.1669537E+00    0.2600271E+00
  0.3276474E+00    0.3631952E+00    0.3631911E+00    0.3276354E+00    0.2600084E+00    0.1669297E+00    0.5751035E-01   -0.5753930E-01   -0.1669575E+00   -0.2600338E+00
 -0.3276574E+00   -0.3632089E+00   -0.1251321E+00   -0.1128818E+00   -0.8958051E-01   -0.5750919E-01   -0.1980739E-01    0.1983407E-01    0.5753466E-01    0.8960382E-01
  0.1129021E+00    0.1251489E+00    0.1251454E+00    0.1128916E+00    0.8958724E-01    0.5751321E-01    0.1980879E-01   -0.1983534E-01   -0.5753861E-01   -0.8961079E-01
 -0.1129124E+00   -0.1251624E+00    0.1251644E+00    0.1129139E+00    0.8961188E-01    0.5753925E-01    0.1983525E-01   -0.1980956E-01   -0.5751461E-01   -0.8958930E-01
 -0.1128941E+00   -0.1251478E+00   -0.1251511E+00   -0.1129038E+00   -0.8960470E-01   -0.5753483E-01   -0.1983358E-01    0.1980852E-01    0.5751069E-01    0.8958223E-01
  0.1128837E+00    0.1251339E+00    0.3632104E+00    0.3276585E+00    0.2600343E+00    0.1669572E+00    0.5753812E-01   -0.5751236E-01   -0.1669325E+00   -0.2600117E+00
 -0.3276388E+00   -0.3631941E+00   -0.3631974E+00   -0.3276483E+00   -0.2600269E+00   -0.1669525E+00   -0.5753611E-01    0.5751157E-01    0.1669288E+00    0.2600048E+00
  0.3276285E+00    0.3631804E+00    0.5657051E+00    0.5103316E+00    0.4050046E+00    0.2600340E+00    0.8961061E-01   -0.8958380E-01   -0.2600085E+00   -0.4049812E+00
 -0.5103114E+00   -0.5656885E+00   -0.5656918E+00   -0.5103214E+00   -0.4049972E+00   -0.2600292E+00   -0.8960836E-01    0.8958331E-01    0.2600052E+00    0.4049747E+00
  0.5103013E+00    0.5656750E+00    0.7128259E+00    0.6430515E+00    0.5103320E+00    0.3276589E+00    0.1129132E+00   -0.1128844E+00   -0.3276315E+00   -0.5103074E+00
 -0.6430306E+00   -0.7128093E+00   -0.7128132E+00   -0.6430418E+00   -0.5103249E+00   -0.3276542E+00   -0.1129109E+00    0.1128843E+00    0.3276286E+00    0.5103011E+00
  0.6430205E+00    0.7127951E+00    0.7901717E+00    0.7128267E+00    0.5657065E+00    0.3632122E+00    0.1251652E+00   -0.1251331E+00   -0.3631820E+00   -0.5656798E+00
 -0.7128049E+00   -0.7901556E+00   -0.7901602E+00   -0.7128181E+00   -0.5657003E+00   -0.3632079E+00   -0.1251627E+00    0.1251334E+00    0.3631796E+00    0.5656741E+00
  0.7127950E+00    0.7901412E+00    0.7901726E+00    0.7128277E+00    0.5657079E+00    0.3632140E+00    0.1251675E+00   -0.1251306E+00   -0.3631795E+00   -0.5656779E+00
 -0.7128041E+00   -0.7901563E+00   -0.7901621E+00   -0.7128208E+00   -0.5657032E+00   -0.3632105E+00   -0.1251650E+00    0.1251316E+00    0.3631784E+00    0.5656731E+00
  0.7127945E+00    0.7901415E+00    0.7128269E+00    0.6430538E+00    0.5103359E+00    0.3276644E+00    0.1129201E+00   -0.1128766E+00   -0.3276237E+00   -0.5103012E+00
 -0.6430280E+00   -0.7128114E+00   -0.7128194E+00   -0.6430503E+00   -0.5103339E+00   -0.3276624E+00   -0.1129178E+00    0.1128788E+00    0.3276244E+00    0.5102982E+00
  0.6430189E+00    0.7127945E+00    0.5657059E+00    0.5103351E+00    0.4050109E+00    0.2600431E+00    0.8962239E-01   -0.8956980E-01   -0.2599939E+00   -0.4049690E+00
 -0.5103055E+00   -0.5656924E+00   -0.5657043E+00   -0.5103376E+00   -0.4050135E+00   -0.2600438E+00   -0.8962016E-01    0.8957404E-01    0.2599982E+00    0.4049700E+00
  0.5102985E+00    0.5656740E+00    0.3632131E+00    0.3276639E+00    0.2600430E+00    0.1669699E+00    0.5755527E-01   -0.5749092E-01   -0.1669083E+00   -0.2599887E+00
 -0.3276254E+00   -0.3632004E+00   -0.3632205E+00   -0.3276763E+00   -0.2600530E+00   -0.1669741E+00   -0.5755316E-01    0.5749858E-01    0.1669195E+00    0.2599985E+00
  0.3276249E+00    0.3631799E+00    0.1251673E+00    0.1129204E+00    0.8962261E-01    0.5755511E-01    0.1985760E-01   -0.1977946E-01   -0.5747624E-01   -0.8954529E-01
 -0.1128574E+00   -0.1251547E+00   -0.1251978E+00   -0.1129516E+00   -0.8964377E-01   -0.5756458E-01   -0.1985548E-01    0.1979253E-01    0.5749944E-01    0.8957487E-01
  0.1128794E+00    0.1251324E+00    0.1251636E+00    0.3632095E+00    0.5657041E+00    0.7128261E+00    0.7901740E+00    0.7901769E+00    0.7128322E+00    0.5656951E+00
  0.3631078E+00    0.1247188E+00   -0.1252509E+00   -0.3632032E+00   -0.5656754E+00   -0.7127930E+00   -0.7901392E+00   -0.7901385E+00   -0.7127927E+00   -0.5656725E+00
 -0.3631771E+00   -0.1251313E+00    0.1129098E+00    0.3276538E+00    0.5103262E+00    0.6430456E+00    0.7128200E+00    0.7128185E+00    0.6430376E+00    0.5102946E+00
  0.3275510E+00    0.1126732E+00   -0.1130001E+00   -0.3276744E+00   -0.5103202E+00   -0.6430303E+00   -0.7128012E+00   -0.7127988E+00   -0.6430228E+00   -0.5103026E+00
 -0.3276291E+00   -0.1128846E+00    0.8960471E-01    0.2600263E+00    0.4049953E+00    0.5103207E+00    0.5656918E+00    0.5656872E+00    0.5103040E+00    0.4049562E+00
  0.2599457E+00    0.8947652E-01   -0.8967475E-01   -0.2600574E+00   -0.4050048E+00   -0.5103201E+00   -0.5656875E+00   -0.5656837E+00   -0.5103079E+00   -0.4049798E+00
 -0.2600090E+00   -0.8958661E-01    0.5752985E-01    0.1669468E+00    0.2600219E+00    0.3276437E+00    0.3631922E+00    0.3631866E+00    0.3276252E+00    0.2599861E+00
  0.1668886E+00    0.5745411E-01   -0.5758030E-01   -0.1669778E+00   -0.2600386E+00   -0.3276524E+00   -0.3631979E+00   -0.3631937E+00   -0.3276390E+00   -0.2600134E+00
 -0.1669361E+00   -0.5751802E-01    0.1982475E-01    0.5752663E-01    0.8959697E-01    0.1128961E+00    0.1251428E+00    0.1251375E+00    0.1128795E+00    0.8956797E-01
  0.5748521E-01    0.1977610E-01   -0.1986136E-01   -0.5755362E-01   -0.8961548E-01   -0.1129093E+00   -0.1251541E+00   -0.1251502E+00   -0.1128973E+00   -0.8959400E-01
 -0.5752107E-01   -0.1981797E-01   -0.1982019E-01   -0.5752387E-01   -0.8959742E-01   -0.1129015E+00   -0.1251553E+00   -0.1251597E+00   -0.1129150E+00   -0.8961963E-01
 -0.5755336E-01   -0.1985310E-01    0.1979272E-01    0.5750140E-01    0.8957973E-01    0.1128869E+00    0.1251417E+00    0.1251449E+00    0.1128967E+00    0.8959652E-01
  0.5752537E-01    0.1982287E-01   -0.5752423E-01   -0.1669428E+00   -0.2600207E+00   -0.3276469E+00   -0.3632018E+00   -0.3632053E+00   -0.3276572E+00   -0.2600372E+00
 -0.1669639E+00   -0.5754711E-01    0.5750329E-01    0.1669246E+00    0.2600051E+00    0.3276330E+00    0.3631881E+00    0.3631906E+00    0.3276403E+00    0.2600173E+00
  0.1669415E+00    0.5752401E-01   -0.8959679E-01   -0.2600197E+00   -0.4049910E+00   -0.5103196E+00   -0.5656955E+00   -0.5656981E+00   -0.5103273E+00   -0.4050029E+00
 -0.2600347E+00   -0.8961277E-01    0.8958096E-01    0.2600055E+00    0.4049781E+00    0.5103074E+00    0.5656832E+00    0.5656849E+00    0.5103125E+00    0.4049863E+00
  0.2600169E+00    0.8959483E-01   -0.1128989E+00   -0.3276439E+00   -0.5103177E+00   -0.6430387E+00   -0.7128152E+00   -0.7128171E+00   -0.6430441E+00   -0.5103261E+00
 -0.3276542E+00   -0.1129096E+00    0.1128871E+00    0.3276332E+00    0.5103076E+00    0.6430288E+00    0.7128050E+00    0.7128060E+00    0.6430319E+00    0.5103128E+00
  0.3276402E+00    0.1128958E+00   -0.1251494E+00   -0.3631959E+00   -0.5656910E+00   -0.7128128E+00   -0.7901599E+00   -0.7901611E+00   -0.7128163E+00   -0.5656964E+00
 -0.3632025E+00   -0.1251560E+00    0.1251413E+00    0.3631885E+00    0.5656838E+00    0.7128055E+00    0.7901521E+00    0.7901526E+00    0.7128070E+00    0.5656862E+00
  0.3631918E+00    0.1251458E+00   -0.1251493E+00   -0.3631956E+00   -0.5656904E+00   -0.7128118E+00   -0.7901585E+00   -0.7901591E+00   -0.7128137E+00   -0.5656933E+00
 -0.3631990E+00   -0.1251524E+00    0.1251447E+00    0.3631915E+00    0.5656863E+00    0.7128073E+00    0.7901534E+00    0.7901535E+00    0.7128074E+00    0.5656864E+00
  0.3631919E+00    0.1251458E+00   -0.1128990E+00   -0.3276435E+00   -0.5103164E+00   -0.6430361E+00   -0.7128111E+00   -0.7128112E+00   -0.6430364E+00   -0.5103167E+00
 -0.3276436E+00   -0.1128987E+00    0.1128975E+00    0.3276423E+00    0.5103150E+00    0.6430344E+00    0.7128089E+00    0.7128084E+00    0.6430331E+00    0.5103132E+00
  0.3276401E+00    0.1128955E+00   -0.8959749E-01   -0.2600194E+00   -0.4049891E+00   -0.5103157E+00   -0.5656889E+00   -0.5656884E+00   -0.5103143E+00   -0.4049868E+00
 -0.2600163E+00   -0.8959360E-01    0.8959916E-01    0.2600212E+00    0.4049906E+00    0.5103167E+00    0.5656893E+00    0.5656885E+00    0.5103142E+00    0.4049866E+00
  0.2600163E+00    0.8959398E-01   -0.5752559E-01   -0.1669430E+00   -0.2600189E+00   -0.3276421E+00   -0.3631932E+00   -0.3631920E+00   -0.3276387E+00   -0.2600135E+00
 -0.1669361E+00   -0.5751778E-01    0.5753074E-01    0.1669478E+00    0.2600231E+00    0.3276456E+00    0.3631962E+00    0.3631950E+00    0.3276418E+00    0.2600169E+00
  0.1669401E+00    0.5752209E-01   -0.1982350E-01   -0.5752569E-01   -0.8959667E-01   -0.1128970E+00   -0.1251457E+00   -0.1251436E+00   -0.1128911E+00   -0.8958738E-01
 -0.5751388E-01   -0.1981056E-01    0.1983190E-01    0.5753324E-01    0.8960307E-01    0.1129025E+00    0.1251509E+00    0.1251490E+00    0.1128972E+00    0.8959470E-01
  0.5752213E-01    0.1981920E-01    0.1981853E-01    0.5752216E-01    0.8959546E-01    0.1128990E+00    0.1251520E+00    0.1251550E+00    0.1129081E+00    0.8960981E-01
  0.5754027E-01    0.1983812E-01   -0.1980628E-01   -0.5751193E-01   -0.8958722E-01   -0.1128920E+00   -0.1251453E+00   -0.1251476E+00   -0.1128988E+00   -0.8959841E-01
 -0.5752716E-01   -0.1982451E-01    0.5752019E-01    0.1669388E+00    0.2600168E+00    0.3276433E+00    0.3631988E+00    0.3632031E+00    0.3276563E+00    0.2600377E+00
  0.1669654E+00    0.5754875E-01   -0.5750291E-01   -0.1669257E+00   -0.2600073E+00   -0.3276359E+00   -0.3631916E+00   -0.3631943E+00   -0.3276443E+00   -0.2600216E+00
 -0.1669458E+00   -0.5752837E-01    0.8958978E-01    0.2600129E+00    0.4049848E+00    0.5103146E+00    0.5656924E+00    0.5656983E+00    0.5103323E+00    0.4050143E+00
  0.2600522E+00    0.8963233E-01   -0.8956667E-01   -0.2599977E+00   -0.4049757E+00   -0.5103088E+00   -0.5656868E+00   -0.5656899E+00   -0.5103185E+00   -0.4049928E+00
 -0.2600236E+00   -0.8960186E-01    0.1128886E+00    0.3276340E+00    0.5103088E+00    0.6430314E+00    0.7128110E+00    0.7128182E+00    0.6430538E+00    0.5103484E+00
  0.3276912E+00    0.1129551E+00   -0.1128572E+00   -0.3276181E+00   -0.5103027E+00   -0.6430302E+00   -0.7128099E+00   -0.7128129E+00   -0.6430402E+00   -0.5103218E+00
 -0.3276497E+00   -0.1129060E+00    0.1251363E+00    0.3631829E+00    0.5656789E+00    0.7128023E+00    0.7901525E+00    0.7901600E+00    0.7128264E+00    0.5657257E+00
  0.3632628E+00    0.1252561E+00   -0.1250948E+00   -0.3631711E+00   -0.5656805E+00   -0.7128102E+00   -0.7901601E+00   -0.7901621E+00   -0.7128186E+00   -0.5656981E+00
 -0.3632040E+00   -0.1251596E+00   -0.2294162E+00   -0.2014963E+00   -0.1563106E+00   -0.1111015E+00   -0.8310998E-01   -0.8310268E-01   -0.1110234E+00   -0.1561582E+00
 -0.2013570E+00   -0.2294974E+00   -0.2292214E+00   -0.2013861E+00   -0.1562572E+00   -0.1109975E+00   -0.8312839E-01   -0.8317859E-01   -0.1110278E+00   -0.1563288E+00
 -0.2016037E+00   -0.2293788E+00   -0.2014989E+00   -0.1735714E+00   -0.1283753E+00   -0.8315983E-01   -0.5518906E-01   -0.5518826E-01   -0.8312449E-01   -0.1283188E+00
 -0.1735611E+00   -0.2015538E+00   -0.2014596E+00   -0.1735485E+00   -0.1283804E+00   -0.8312716E-01   -0.5522035E-01   -0.5526802E-01   -0.8315407E-01   -0.1284158E+00
 -0.1736863E+00   -0.2015221E+00   -0.1563419E+00   -0.1283995E+00   -0.8318247E-01   -0.3797246E-01   -0.1001273E-01   -0.1000563E-01   -0.3796596E-01   -0.8318243E-01
 -0.1284181E+00   -0.1564005E+00   -0.1563555E+00   -0.1284059E+00   -0.8323030E-01   -0.3797833E-01   -0.1002967E-01   -0.1009076E-01   -0.3799555E-01   -0.8321001E-01
 -0.1285102E+00   -0.1563844E+00   -0.1111592E+00   -0.8321364E-01   -0.3800315E-01    0.7204504E-02    0.3517250E-01    0.3516404E-01    0.7192370E-02   -0.3801585E-01
 -0.8326748E-01   -0.1112529E+00   -0.1112029E+00   -0.8325776E-01   -0.3807603E-01    0.7201799E-02    0.3514372E-01    0.3508228E-01    0.7204041E-02   -0.3803044E-01