 TITLE = "NAVIER-STOKES OUTPUT"
 VARIABLES = "X", "Y", "U", "V", "P", "Pex", "Vor"
 ZONE I =   21, J =   21, DATAPACKING = BLOCK, VARLOCATION=(3=CELLCENTERED, 4=CELLCENTERED,5=CELLCENTERED,6=CELLCENTERED, 7=CELLCENTERED)
  0.0000000E+00    0.3141593E+00    0.6283185E+00    0.9424778E+00    0.1256637E+01    0.1570796E+01    0.1884956E+01    0.2199115E+01    0.2513274E+01    0.2827433E+01
  0.3141593E+01    0.3455752E+01    0.3769911E+01    0.4084071E+01    0.4398230E+01    0.4712389E+01    0.5026548E+01    0.5340708E+01    0.5654867E+01    0.5969026E+01
  0.6283185E+01    0.0000000E+00    0.3141593E+00    0.6283185E+00    0.9424778E+00    0.1256637E+01    0.1570796E+01    0.1884956E+01    0.2199115E+01    0.2513274E+01
  0.2827433E+01    0.3141593E+01    0.3455752E+01    0.3769911E+01    0.4084071E+01    0.4398230E+01    0.4712389E+01    0.5026548E+01    0.5340708E+01    0.5654867E+01
  0.5969026E+01    0.6283185E+01    0.0000000E+00    0.3141593E+00    0.6283185E+00    0.9424778E+00    0.1256637E+01    0.1570796E+01    0.1884956E+01    0.2199115E+01
  0.2513274E+01    0.2827433E+01    0.3141593E+01    0.3455752E+01    0.3769911E+01    0.4084071E+01    0.4398230E+01    0.4712389E+01    0.5026548E+01    0.5340708E+01
  0.5654867E+01    0.5969026E+01    0.6283185E+01    0.0000000E+00    0.3141593E+00    0.6283185E+00    0.9424778E+00    0.1256637E+01    0.1570796E+01    0.1884956E+01
  0.2199115E+01    0.2513274E+01    0.2827433E+01    0.3141593E+01    0.3455752E+01    0.3769911E+01    0.4084071E+01    0.4398230E+01    0.4712389E+01    0.5026548E+01
  0.5340708E+01    0.5654867E+01    0.5969026E+01    0.6283185E+01    0.0000000E+00    0.3141593E+00    0.6283185E+00    0.9424778E+00    0.1256637E+01    0.1570796E+01
  0.1884956E+01    0.2199115E+01    0.2513274E+01    0.2827433E+01    0.3141593E+01    0.3455752E+01    0.3769911E+01    0.4084071E+01    0.4398230E+01    0.4712389E+01
  0.5026548E+01    0.5340708E+01    0.5654867E+01    0.5969026E+01    0.6283185E+01    0.0000000E+00    0.3141593E+00    0.6283185E+00    0.9424778E+00    0.1256637E+01
  0.1570796E+01    0.1884956E+01    0.2199115E+01    0.2513274E+01    0.2827433E+01    0.3141593E+01    0.3455752E+01    0.3769911E+01    0.4084071E+01    0.4398230E+01
  0.4712389E+01    0.5026548E+01    0.5340708E+01    0.5654867E+01    0.5969026E+01    0.6283185E+01    0.0000000E+00    0.3141593E+00    0.6283185E+00    0.9424778E+00
  0.1256637E+01    0.1570796E+01    0.1884956E+01    0.2199115E+01    0.2513274E+01    0.2827433E+01    0.3141593E+01    0.3455752E+01    0.3769911E+01    0.4084071E+01
  0.4398230E+01    0.4712389E+01    0.5026548E+01    0.5340708E+01    0.5654867E+01    0.5969026E+01    0.6283185E+01    0.0000000E+00    0.3141593E+00    0.6283185E+00
  0.9424778E+00    0.1256637E+01    0.1570796E+01    0.1884956E+01    0.2199115E+01    0.2513274E+01    0.2827433E+01    0.3141593E+01    0.3455752E+01    0.3769911E+01
  0.4084071E+01    0.4398230E+01    0.4712389E+01    0.5026548E+01    0.5340708E+01    0.5654867E+01    0.5969026E+01    0.6283185E+01    0.0000000E+00    0.3141593E+00
  0.6283185E+00    0.9424778E+00    0.1256637E+01    0.1570796E+01    0.1884956E+01    0.2199115E+01    0.2513274E+01    0.2827433E+01    0.3141593E+01    0.3455752E+01
  0.3769911E+01    0.4084071E+01    0.4398230E+01    0.4712389E+01    0.5026548E+01    0.5340708E+01    0.5654867E+01    0.5969026E+01    0.6283185E+01    0.0000000E+00
  0.3141593E+00    0.6283185E+00    0.9424778E+00    0.1256637E+01    0.1570796E+01    0.1884956E+01    0.2199115E+01    0.2513274E+01    0.2827433E+01    0.3141593E+01
  0.3455752E+01    0.3769911E+01    0.4084071E+01    0.4398230E+01    0.4712389E+01    0.5026548E+01    0.5340708E+01    0.5654867E+01    0.5969026E+01    0.6283185E+01
  0.0000000E+00    0.3141593E+00    0.6283185E+00    0.9424778E+00    0.1256637E+01    0.1570796E+01    0.1884956E+01    0.2199115E+01    0.2513274E+01    0.2827433E+01
  0.3141593E+01    0.3455752E+01    0.3769911E+01    0.4084071E+01    0.4398230E+01    0.4712389E+01    0.5026548E+01    0.5340708E+01    0.5654867E+01    0.5969026E+01
  0.6283185E+01    0.0000000E+00    0.3141593E+00    0.6283185E+00    0.9424778E+00    0.1256637E+01    0.1570796E+01    0.1884956E+01    0.2199115E+01    0.2513274E+01
  0.2827433E+01    0.3141593E+01    0.3455752E+01    0.3769911E+01    0.4084071E+01    0.4398230E+01    0.4712389E+01    0.5026548E+01    0.5340708E+01    0.5654867E+01
  0.5969026E+01    0.6283185E+01    0.0000000E+00    0.3141593E+00    0.6283185E+00    0.9424778E+00    0.1256637E+01    0.1570796E+01    0.1884956E+01    0.2199115E+01
  0.2513274E+01    0.2827433E+01    0.3141593E+01    0.3455752E+01    0.3769911E+01    0.4084071E+01    0.4398230E+01    0.4712389E+01    0.5026548E+01    0.5340708E+01
  0.5654867E+01    0.5969026E+01    0.6283185E+01    0.0000000E+00    0.3141593E+00    0.6283185E+00    0.9424778E+00    0.1256637E+01    0.1570796E+01    0.1884956E+01
  0.2199115E+01    0.2513274E+01    0.2827433E+01    0.3141593E+01    0.3455752E+01    0.3769911E+01    0.4084071E+01    0.4398230E+01    0.4712389E+01    0.5026548E+01
  0.5340708E+01    0.5654867E+01    0.5969026E+01    0.6283185E+01    0.0000000E+00    0.3141593E+00    0.6283185E+00    0.9424778E+00    0.1256637E+01    0.1570796E+01
  0.1884956E+01    0.2199115E+01    0.2513274E+01    0.2827433E+01    0.3141593E+01    0.3455752E+01    0.3769911E+01    0.4084071E+01    0.4398230E+01    0.4712389E+01
  0.5026548E+01    0.5340708E+01    0.5654867E+01    0.5969026E+01    0.6283185E+01    0.0000000E+00    0.3141593E+00    0.6283185E+00    0.9424778E+00    0.1256637E+01
  0.1570796E+01    0.1884956E+01    0.2199115E+01    0.2513274E+01    0.2827433E+01    0.3141593E+01    0.3455752E+01    0.3769911E+01    0.4084071E+01    0.4398230E+01
  0.4712389E+01    0.5026548E+01    0.5340708E+01    0.5654867E+01    0.5969026E+01    0.6283185E+01    0.0000000E+00    0.3141593E+00    0.6283185E+00    0.9424778E+00
  0.1256637E+01    0.1570796E+01    0.1884956E+01    0.2199115E+01    0.2513274E+01    0.2827433E+01    0.3141593E+01    0.3455752E+01    0.3769911E+01    0.4084071E+01
  0.4398230E+01    0.4712389E+01    0.5026548E+01    0.5340708E+01    0.5654867E+01    0.5969026E+01    0.6283185E+01    0.0000000E+00    0.3141593E+00    0.6283185E+00
  0.9424778E+00    0.1256637E+01    0.1570796E+01    0.1884956E+01    0.2199115E+01    0.2513274E+01    0.2827433E+01    0.3141593E+01    0.3455752E+01    0.3769911E+01
  0.4084071E+01    0.4398230E+01    0.4712389E+01    0.5026548E+01    0.5340708E+01    0.5654867E+01    0.5969026E+01    0.6283185E+01    0.0000000E+00    0.3141593E+00
  0.6283185E+00    0.9424778E+00    0.1256637E+01    0.1570796E+01    0.1884956E+01    0.2199115E+01    0.2513274E+01    0.2827433E+01    0.3141593E+01    0.3455752E+01
  0.3769911E+01    0.4084071E+01    0.4398230E+01    0.4712389E+01    0.5026548E+01    0.5340708E+01    0.5654867E+01    0.5969026E+01    0.6283185E+01    0.0000000E+00
  0.3141593E+00    0.6283185E+00    0.9424778E+00    0.1256637E+01    0.1570796E+01    0.1884956E+01    0.2199115E+01    0.2513274E+01    0.2827433E+01    0.3141593E+01
  0.3455752E+01    0.3769911E+01    0.4084071E+01    0.4398230E+01    0.4712389E+01    0.5026548E+01    0.5340708E+01    0.5654867E+01    0.5969026E+01    0.6283185E+01
  0.0000000E+00    0.3141593E+00    0.6283185E+00    0.9424778E+00    0.1256637E+01    0.1570796E+01    0.1884956E+01    0.2199115E+01    0.2513274E+01    0.2827433E+01
  0.3141593E+01    0.3455752E+01    0.3769911E+01    0.4084071E+01    0.4398230E+01    0.4712389E+01    0.5026548E+01    0.5340708E+01    0.5654867E+01    0.5969026E+01
  0.6283185E+01    0.0000000E+00    0.0000000E+00    0.0000000E+00    0.0000000E+00    0.0000000E+00    0.0000000E+00    0.0000000E+00    0.0000000E+00    0.0000000E+00
  0.0000000E+00    0.0000000E+00    0.0000000E+00    0.0000000E+00    0.0000000E+00    0.0000000E+00    0.0000000E+00    0.0000000E+00    0.0000000E+00    0.0000000E+00
  0.0000000E+00    0.0000000E+00    0.3141593E+00    0.3141593E+00    0.3141593E+00    0.3141593E+00    0.3141593E+00    0.3141593E+00    0.3141593E+00    0.3141593E+00
  0.3141593E+00    0.3141593E+00    0.3141593E+00    0.3141593E+00    0.3141593E+00    0.3141593E+00    0.3141593E+00    0.3141593E+00    0.3141593E+00    0.3141593E+00
  0.3141593E+00    0.3141593E+00    0.3141593E+00    0.6283185E+00    0.6283185E+00    0.6283185E+00    0.6283185E+00    0.6283185E+00    0.6283185E+00    0.6283185E+00
  0.6283185E+00    0.6283185E+00    0.6283185E+00    0.6283185E+00    0.6283185E+00    0.6283185E+00    0.6283185E+00    0.6283185E+00    0.6283185E+00    0.6283185E+00
  0.6283185E+00    0.6283185E+00    0.6283185E+00    0.6283185E+00    0.9424778E+00    0.9424778E+00    0.9424778E+00    0.9424778E+00    0.9424778E+00    0.9424778E+00
  0.9424778E+00    0.9424778E+00    0.9424778E+00    0.9424778E+00    0.9424778E+00    0.9424778E+00    0.9424778E+00    0.9424778E+00    0.9424778E+00    0.9424778E+00
  0.9424778E+00    0.9424778E+00    0.9424778E+00    0.9424778E+00    0.9424778E+00    0.1256637E+01    0.1256637E+01    0.1256637E+01    0.1256637E+01    0.1256637E+01
  0.1256637E+01    0.1256637E+01    0.1256637E+01    0.1256637E+01    0.1256637E+01    0.1256637E+01    0.1256637E+01    0.1256637E+01    0.1256637E+01    0.1256637E+01
  0.1256637E+01    0.1256637E+01    0.1256637E+01    0.1256637E+01    0.1256637E+01    0.1256637E+01    0.1570796E+01    0.1570796E+01    0.1570796E+01    0.1570796E+01
  0.1570796E+01    0.1570796E+01    0.1570796E+01    0.1570796E+01    0.1570796E+01    0.1570796E+01    0.1570796E+01    0.1570796E+01    0.1570796E+01    0.1570796E+01
  0.1570796E+01    0.1570796E+01    0.1570796E+01    0.1570796E+01    0.1570796E+01    0.1570796E+01    0.1570796E+01    0.1884956E+01    0.1884956E+01    0.1884956E+01
  0.1884956E+01    0.1884956E+01    0.1884956E+01    0.1884956E+01    0.1884956E+01    0.1884956E+01    0.1884956E+01    0.1884956E+01    0.1884956E+01    0.1884956E+01
  0.1884956E+01    0.1884956E+01    0.1884956E+01    0.1884956E+01    0.1884956E+01    0.1884956E+01    0.1884956E+01    0.1884956E+01    0.2199115E+01    0.2199115E+01
  0.2199115E+01    0.2199115E+01    0.2199115E+01    0.2199115E+01    0.2199115E+01    0.2199115E+01    0.2199115E+01    0.2199115E+01    0.2199115E+01    0.2199115E+01
  0.2199115E+01    0.2199115E+01    0.2199115E+01    0.2199115E+01    0.2199115E+01    0.2199115E+01    0.2199115E+01    0.2199115E+01    0.2199115E+01    0.2513274E+01
  0.2513274E+01    0.2513274E+01    0.2513274E+01    0.2513274E+01    0.2513274E+01    0.2513274E+01    0.2513274E+01    0.2513274E+01    0.2513274E+01    0.2513274E+01
  0.2513274E+01    0.2513274E+01    0.2513274E+01    0.2513274E+01    0.2513274E+01    0.2513274E+01    0.2513274E+01    0.2513274E+01    0.2513274E+01    0.2513274E+01
  0.2827433E+01    0.2827433E+01    0.2827433E+01    0.2827433E+01    0.2827433E+01    0.2827433E+01    0.2827433E+01    0.2827433E+01    0.2827433E+01    0.2827433E+01
  0.2827433E+01    0.2827433E+01    0.2827433E+01    0.2827433E+01    0.2827433E+01    0.2827433E+01    0.2827433E+01    0.2827433E+01    0.2827433E+01    0.2827433E+01
  0.2827433E+01    0.3141593E+01    0.3141593E+01    0.3141593E+01    0.3141593E+01    0.3141593E+01    0.3141593E+01    0.3141593E+01    0.3141593E+01    0.3141593E+01
  0.3141593E+01    0.3141593E+01    0.3141593E+01    0.3141593E+01    0.3141593E+01    0.3141593E+01    0.3141593E+01    0.3141593E+01    0.3141593E+01    0.3141593E+01
  0.3141593E+01    0.3141593E+01    0.3455752E+01    0.3455752E+01    0.3455752E+01    0.3455752E+01    0.3455752E+01    0.3455752E+01    0.3455752E+01    0.3455752E+01
  0.3455752E+01    0.3455752E+01    0.3455752E+01    0.3455752E+01    0.3455752E+01    0.3455752E+01    0.3455752E+01    0.3455752E+01    0.3455752E+01    0.3455752E+01
  0.3455752E+01    0.3455752E+01    0.3455752E+01    0.3769911E+01    0.3769911E+01    0.3769911E+01    0.3769911E+01    0.3769911E+01    0.3769911E+01    0.3769911E+01
  0.3769911E+01    0.3769911E+01    0.3769911E+01    0.3769911E+01    0.3769911E+01    0.3769911E+01    0.3769911E+01    0.3769911E+01    0.3769911E+01    0.3769911E+01
  0.3769911E+01    0.3769911E+01    0.3769911E+01    0.3769911E+01    0.4084071E+01    0.4084071E+01    0.4084071E+01    0.4084071E+01    0.4084071E+01    0.4084071E+01
  0.4084071E+01    0.4084071E+01    0.4084071E+01    0.4084071E+01    0.4084071E+01    0.4084071E+01    0.4084071E+01    0.4084071E+01    0.4084071E+01    0.4084071E+01
  0.4084071E+01    0.4084071E+01    0.4084071E+01    0.4084071E+01    0.4084071E+01    0.4398230E+01    0.4398230E+01    0.4398230E+01    0.4398230E+01    0.4398230E+01
  0.4398230E+01    0.4398230E+01    0.4398230E+01    0.4398230E+01    0.4398230E+01    0.4398230E+01    0.4398230E+01    0.4398230E+01    0.4398230E+01    0.4398230E+01
  0.4398230E+01    0.4398230E+01    0.4398230E+01    0.4398230E+01    0.4398230E+01    0.4398230E+01    0.4712389E+01    0.4712389E+01    0.4712389E+01    0.4712389E+01
  0.4712389E+01    0.4712389E+01    0.4712389E+01    0.4712389E+01    0.4712389E+01    0.4712389E+01    0.4712389E+01    0.4712389E+01    0.4712389E+01    0.4712389E+01
  0.4712389E+01    0.4712389E+01    0.4712389E+01    0.4712389E+01    0.4712389E+01    0.4712389E+01    0.4712389E+01    0.5026548E+01    0.5026548E+01    0.5026548E+01
  0.5026548E+01    0.5026548E+01    0.5026548E+01    0.5026548E+01    0.5026548E+01    0.5026548E+01    0.5026548E+01    0.5026548E+01    0.5026548E+01    0.5026548E+01
  0.5026548E+01    0.5026548E+01    0.5026548E+01    0.5026548E+01    0.5026548E+01    0.5026548E+01    0.5026548E+01    0.5026548E+01    0.5340708E+01    0.5340708E+01
  0.5340708E+01    0.5340708E+01    0.5340708E+01    0.5340708E+01    0.5340708E+01    0.5340708E+01    0.5340708E+01    0.5340708E+01    0.5340708E+01    0.5340708E+01
  0.5340708E+01    0.5340708E+01    0.5340708E+01    0.5340708E+01    0.5340708E+01    0.5340708E+01    0.5340708E+01    0.5340708E+01    0.5340708E+01    0.5654867E+01
  0.5654867E+01    0.5654867E+01    0.5654867E+01    0.5654867E+01    0.5654867E+01    0.5654867E+01    0.5654867E+01    0.5654867E+01    0.5654867E+01    0.5654867E+01
  0.5654867E+01    0.5654867E+01    0.5654867E+01    0.5654867E+01    0.5654867E+01    0.5654867E+01    0.5654867E+01    0.5654867E+01    0.5654867E+01    0.5654867E+01
  0.5969026E+01    0.5969026E+01    0.5969026E+01    0.5969026E+01    0.5969026E+01    0.5969026E+01    0.5969026E+01    0.5969026E+01    0.5969026E+01    0.5969026E+01
  0.5969026E+01    0.5969026E+01    0.5969026E+01    0.5969026E+01    0.5969026E+01    0.5969026E+01    0.5969026E+01    0.5969026E+01    0.5969026E+01    0.5969026E+01
  0.5969026E+01    0.6283185E+01    0.6283185E+01    0.6283185E+01    0.6283185E+01    0.6283185E+01    0.6283185E+01    0.6283185E+01    0.6283185E+01    0.6283185E+01
  0.6283185E+01    0.6283185E+01    0.6283185E+01    0.6283185E+01    0.6283185E+01    0.6283185E+01    0.6283185E+01    0.6283185E+01    0.6283185E+01    0.6283185E+01
  0.6283185E+01    0.6283185E+01   -0.1133099E+00   -0.1022126E+00   -0.8110704E-01   -0.5205812E-01   -0.1790838E-01    0.1800146E-01    0.5216049E-01    0.8123036E-01
  0.1023595E+00    0.1133375E+00    0.1132191E+00    0.1021492E+00    0.8107250E-01    0.5204413E-01    0.1791080E-01   -0.1798168E-01   -0.5211946E-01   -0.8115943E-01
 -0.1022567E+00   -0.1133472E+00   -0.3288795E+00   -0.2966805E+00   -0.2354373E+00   -0.1511436E+00   -0.5204926E-01    0.5214812E-01    0.1512516E+00    0.2355591E+00
  0.2967981E+00    0.3289124E+00    0.3288278E+00    0.2966261E+00    0.2354017E+00    0.1511278E+00    0.5205178E-01   -0.5212617E-01   -0.1512069E+00   -0.2354904E+00
 -0.2967249E+00   -0.3289163E+00   -0.5122545E+00   -0.4621059E+00   -0.3667202E+00   -0.2354333E+00   -0.8109559E-01    0.8118675E-01    0.2355287E+00    0.3668183E+00
  0.4621896E+00    0.5122864E+00    0.5122353E+00    0.4620740E+00    0.3666950E+00    0.2354210E+00    0.8109770E-01   -0.8116905E-01   -0.2354948E+00   -0.3667719E+00
 -0.4621493E+00   -0.5122904E+00   -0.6454846E+00   -0.5822953E+00   -0.4621041E+00   -0.2966755E+00   -0.1022023E+00    0.1022795E+00    0.2967529E+00    0.4621781E+00
  0.5823548E+00    0.6455131E+00    0.6454831E+00    0.5822815E+00    0.4620903E+00    0.2966679E+00    0.1022037E+00   -0.1022680E+00   -0.2967324E+00   -0.4621530E+00
 -0.5823373E+00   -0.6455206E+00   -0.7155292E+00   -0.6454838E+00   -0.5122518E+00   -0.3288744E+00   -0.1133017E+00    0.1133645E+00    0.3289355E+00    0.5123075E+00
  0.6455275E+00    0.7155532E+00    0.7155352E+00    0.6454807E+00    0.5122462E+00    0.3288708E+00    0.1133026E+00   -0.1133586E+00   -0.3289256E+00   -0.5122972E+00
 -0.6455236E+00   -0.7155637E+00   -0.7155298E+00   -0.6454853E+00   -0.5122542E+00   -0.3288779E+00   -0.1133067E+00    0.1133575E+00    0.3289265E+00    0.5122975E+00
  0.6455194E+00    0.7155512E+00    0.7155397E+00    0.6454882E+00    0.5122538E+00    0.3288771E+00    0.1133072E+00   -0.1133553E+00   -0.3289234E+00   -0.5122958E+00
 -0.6455228E+00   -0.7155630E+00   -0.6454872E+00   -0.5822999E+00   -0.4621110E+00   -0.2966856E+00   -0.1022170E+00    0.1022587E+00    0.2967252E+00    0.4621461E+00
  0.5823282E+00    0.6455071E+00    0.6454992E+00    0.5823062E+00    0.4621138E+00    0.2966866E+00    0.1022174E+00   -0.1022586E+00   -0.2967261E+00   -0.4621493E+00
 -0.5823357E+00   -0.6455207E+00   -0.5122592E+00   -0.4621131E+00   -0.3667308E+00   -0.2354490E+00   -0.8111841E-01    0.8115365E-01    0.2354824E+00    0.3667606E+00
  0.4621376E+00    0.5122770E+00    0.5122712E+00    0.4621210E+00    0.3667354E+00    0.2354512E+00    0.8111898E-01   -0.8115465E-01   -0.2354854E+00   -0.3667663E+00
 -0.4621471E+00   -0.5122913E+00   -0.3288847E+00   -0.2966892E+00   -0.2354503E+00   -0.1511625E+00   -0.5207671E-01    0.5210759E-01    0.1511919E+00    0.2354767E+00
  0.2967115E+00    0.3289021E+00    0.3288975E+00    0.2966982E+00    0.2354561E+00    0.1511657E+00    0.5207758E-01   -0.5210892E-01   -0.1511957E+00   -0.2354835E+00
 -0.2967216E+00   -0.3289157E+00   -0.1133147E+00   -0.1022212E+00   -0.8112003E-01   -0.5207692E-01   -0.1793510E-01    0.1796326E-01    0.5210384E-01    0.8114445E-01
  0.1022424E+00    0.1133322E+00    0.1133283E+00    0.1022312E+00    0.8112679E-01    0.5208080E-01    0.1793640E-01   -0.1796451E-01   -0.5210797E-01   -0.8115168E-01
 -0.1022530E+00   -0.1133467E+00    0.1133475E+00    0.1022542E+00    0.8115261E-01    0.5210828E-01    0.1796424E-01   -0.1793744E-01   -0.5208270E-01   -0.8112927E-01
 -0.1022340E+00   -0.1133313E+00   -0.1133347E+00   -0.1022441E+00   -0.8114540E-01   -0.5210382E-01   -0.1796244E-01    0.1793642E-01    0.5207869E-01    0.8112205E-01
  0.1022232E+00    0.1133167E+00    0.3289176E+00    0.2967225E+00    0.2354834E+00    0.1511948E+00    0.5210700E-01   -0.5208055E-01   -0.1511694E+00   -0.2354604E+00
 -0.2967025E+00   -0.3289010E+00   -0.3289043E+00   -0.2967122E+00   -0.2354758E+00   -0.1511898E+00   -0.5210482E-01    0.5207993E-01    0.1511658E+00    0.2354534E+00
  0.2966921E+00    0.3288876E+00    0.5122929E+00    0.4621474E+00    0.3667654E+00    0.2354831E+00    0.8115099E-01   -0.8112390E-01   -0.2354572E+00   -0.3667420E+00
 -0.4621270E+00   -0.5122756E+00   -0.5122790E+00   -0.4621368E+00   -0.3667576E+00   -0.2354780E+00   -0.8114843E-01    0.8112370E-01    0.2354538E+00    0.3667352E+00
  0.4621166E+00    0.5122612E+00    0.6455210E+00    0.5823353E+00    0.4621476E+00    0.2967226E+00    0.1022533E+00   -0.1022246E+00   -0.2966954E+00   -0.4621233E+00
 -0.5823149E+00   -0.6455054E+00   -0.6455090E+00   -0.5823255E+00   -0.4621401E+00   -0.2967174E+00   -0.1022504E+00    0.1022247E+00    0.2966924E+00    0.4621167E+00
  0.5823042E+00    0.6454903E+00    0.7155646E+00    0.6455225E+00    0.5122936E+00    0.3289189E+00    0.1133483E+00   -0.1133169E+00   -0.3288894E+00   -0.5122677E+00
 -0.6455014E+00   -0.7155487E+00   -0.7155529E+00   -0.6455135E+00   -0.5122867E+00   -0.3289140E+00   -0.1133454E+00    0.1133174E+00    0.3288868E+00    0.5122613E+00
  0.6454910E+00    0.7155346E+00    0.7155658E+00    0.6455235E+00    0.5122948E+00    0.3289206E+00    0.1133502E+00   -0.1133148E+00   -0.3288876E+00   -0.5122665E+00
 -0.6455012E+00   -0.7155496E+00   -0.7155548E+00   -0.6455158E+00   -0.5122891E+00   -0.3289163E+00   -0.1133474E+00    0.1133158E+00    0.3288854E+00    0.5122603E+00
  0.6454901E+00    0.7155331E+00    0.6455213E+00    0.5823372E+00    0.4621510E+00    0.2967275E+00    0.1022593E+00   -0.1022180E+00   -0.2966895E+00   -0.4621192E+00
 -0.5823141E+00   -0.6455084E+00   -0.6455149E+00   -0.5823330E+00   -0.4621478E+00   -0.2967245E+00   -0.1022565E+00    0.1022196E+00    0.2966885E+00    0.4621137E+00
  0.5823022E+00    0.6454894E+00    0.5122929E+00    0.4621504E+00    0.3667711E+00    0.2354914E+00    0.8116153E-01   -0.8111206E-01   -0.2354458E+00   -0.3667335E+00
 -0.4621246E+00   -0.5122811E+00   -0.5122906E+00   -0.4621510E+00   -0.3667716E+00   -0.2354904E+00   -0.8115905E-01    0.8111512E-01    0.2354473E+00    0.3667303E+00
  0.4621138E+00    0.5122616E+00    0.3289204E+00    0.2967276E+00    0.2354917E+00    0.1512066E+00    0.5212265E-01   -0.5206175E-01   -0.1511495E+00   -0.2354430E+00
 -0.2966940E+00   -0.3289089E+00   -0.3289254E+00   -0.2967362E+00   -0.2354982E+00   -0.1512088E+00   -0.5212014E-01    0.5206771E-01    0.1511565E+00    0.2354467E+00
  0.2966873E+00    0.3288847E+00    0.1133493E+00    0.1022604E+00    0.8116309E-01    0.5212368E-01    0.1798564E-01   -0.1790958E-01   -0.5204856E-01   -0.8109121E-01
 -0.1022029E+00   -0.1133390E+00   -0.1133769E+00   -0.1022867E+00   -0.8118048E-01   -0.5213055E-01   -0.1798297E-01    0.1792073E-01    0.5206785E-01    0.8111405E-01
  0.1022172E+00    0.1133139E+00    0.1133486E+00    0.3289180E+00    0.5122935E+00    0.6455253E+00    0.7155709E+00    0.7155746E+00    0.6455312E+00    0.5122767E+00
  0.3287967E+00    0.1128883E+00   -0.1134575E+00   -0.3289216E+00   -0.5122645E+00   -0.6454885E+00   -0.7155296E+00   -0.7155285E+00   -0.6454879E+00   -0.5122575E+00
 -0.3288812E+00   -0.1133145E+00    0.1022512E+00    0.2967190E+00    0.4621438E+00    0.5823325E+00    0.6455195E+00    0.6455188E+00    0.5823245E+00    0.4621061E+00
  0.2965992E+00    0.1019935E+00   -0.1023597E+00   -0.2967475E+00   -0.4621375E+00   -0.5823134E+00   -0.6454951E+00   -0.6454926E+00   -0.5823054E+00   -0.4621163E+00
 -0.2966907E+00   -0.1022233E+00    0.8114623E-01    0.2354764E+00    0.3667575E+00    0.4621383E+00    0.5122816E+00    0.5122771E+00    0.4621208E+00    0.3667129E+00
  0.2353822E+00    0.8099955E-01   -0.8122999E-01   -0.2355140E+00   -0.3667676E+00   -0.4621354E+00   -0.5122735E+00   -0.5122695E+00   -0.4621221E+00   -0.3667389E+00
 -0.2354561E+00   -0.8112540E-01    0.5209962E-01    0.1511851E+00    0.2354719E+00    0.2967087E+00    0.3289004E+00    0.3288943E+00    0.2966882E+00    0.2354307E+00
  0.1511165E+00    0.5201016E-01   -0.5215960E-01   -0.1512213E+00   -0.2354901E+00   -0.2967167E+00   -0.3289044E+00   -0.3288998E+00   -0.2967018E+00   -0.2354611E+00
 -0.1511720E+00   -0.5208539E-01    0.1795406E-01    0.5209591E-01    0.8113788E-01    0.1022367E+00    0.1133264E+00    0.1133203E+00    0.1022177E+00    0.8110400E-01
  0.5204672E-01    0.1789587E-01   -0.1799741E-01   -0.5212720E-01   -0.8115853E-01   -0.1022506E+00   -0.1133378E+00   -0.1133335E+00   -0.1022369E+00   -0.8113359E-01
 -0.5208884E-01   -0.1794543E-01   -0.1794810E-01   -0.5209184E-01   -0.8113735E-01   -0.1022416E+00   -0.1133392E+00   -0.1133444E+00   -0.1022575E+00   -0.8116375E-01
 -0.5212726E-01   -0.1798764E-01    0.1791567E-01    0.5206583E-01    0.8111737E-01    0.1022256E+00    0.1133243E+00    0.1133280E+00    0.1022368E+00    0.8113686E-01
  0.5209417E-01    0.1795181E-01   -0.5209225E-01   -0.1511796E+00   -0.2354695E+00   -0.2967110E+00   -0.3289096E+00   -0.3289138E+00   -0.2967235E+00   -0.2354896E+00
 -0.1512054E+00   -0.5212017E-01    0.5206760E-01    0.1511585E+00    0.2354516E+00    0.2966951E+00    0.3288940E+00    0.3288968E+00    0.2967035E+00    0.2354659E+00
  0.1511786E+00    0.5209250E-01   -0.8113694E-01   -0.2354685E+00   -0.3667518E+00   -0.4621359E+00   -0.5122839E+00   -0.5122872E+00   -0.4621455E+00   -0.3667668E+00
 -0.2354872E+00   -0.8115673E-01    0.8111785E-01    0.2354516E+00    0.3667366E+00    0.4621215E+00    0.5122692E+00    0.5122711E+00    0.4621273E+00    0.3667464E+00
  0.2354652E+00    0.8113502E-01   -0.1022392E+00   -0.2967077E+00   -0.4621336E+00   -0.5823236E+00   -0.6455125E+00   -0.6455149E+00   -0.5823307E+00   -0.4621445E+00
 -0.2967211E+00   -0.1022528E+00    0.1022244E+00    0.2966945E+00    0.4621213E+00    0.5823114E+00    0.6454997E+00    0.6455009E+00    0.5823151E+00    0.4621274E+00
  0.2967031E+00    0.1022354E+00   -0.1133329E+00   -0.3289028E+00   -0.5122785E+00   -0.6455095E+00   -0.7155541E+00   -0.7155558E+00   -0.6455145E+00   -0.5122862E+00
 -0.3289121E+00   -0.1133421E+00    0.1133222E+00    0.3288932E+00    0.5122692E+00    0.6454999E+00    0.7155438E+00    0.7155444E+00    0.6455018E+00    0.5122724E+00
  0.3288978E+00    0.1133284E+00   -0.1133331E+00   -0.3289028E+00   -0.5122782E+00   -0.6455087E+00   -0.7155527E+00   -0.7155538E+00   -0.6455119E+00   -0.5122829E+00
 -0.3289084E+00   -0.1133384E+00    0.1133258E+00    0.3288964E+00    0.5122717E+00    0.6455018E+00    0.7155451E+00    0.7155451E+00    0.6455022E+00    0.5122725E+00
  0.3288977E+00    0.1133286E+00   -0.1022397E+00   -0.2967076E+00   -0.4621326E+00   -0.5823212E+00   -0.6455084E+00   -0.6455089E+00   -0.5823226E+00   -0.4621346E+00
 -0.2967098E+00   -0.1022411E+00    0.1022354E+00    0.2967041E+00    0.4621290E+00    0.5823171E+00    0.6455035E+00    0.6455032E+00    0.5823161E+00    0.4621276E+00
  0.2967028E+00    0.1022348E+00   -0.8113804E-01   -0.2354686E+00   -0.3667504E+00   -0.4621322E+00   -0.5122774E+00   -0.5122773E+00   -0.4621318E+00   -0.3667497E+00
 -0.2354675E+00   -0.8113617E-01    0.8113713E-01    0.2354681E+00    0.3667495E+00    0.4621308E+00    0.5122753E+00    0.5122746E+00    0.4621286E+00    0.3667463E+00
  0.2354641E+00    0.8113317E-01   -0.5209477E-01   -0.1511808E+00   -0.2354685E+00   -0.2967069E+00   -0.3289014E+00   -0.3289005E+00   -0.2967044E+00   -0.2354646E+00
 -0.1511758E+00   -0.5208891E-01    0.5209682E-01    0.1511829E+00    0.2354700E+00    0.2967079E+00    0.3289019E+00    0.3289007E+00    0.2967046E+00    0.2354650E+00
  0.1511764E+00    0.5209014E-01   -0.1795274E-01   -0.5209487E-01   -0.8113767E-01   -0.1022380E+00   -0.1133302E+00   -0.1133285E+00   -0.1022330E+00   -0.8112985E-01
 -0.5208507E-01   -0.1794180E-01    0.1795766E-01    0.5209931E-01    0.8114145E-01    0.1022412E+00    0.1133331E+00    0.1133316E+00    0.1022367E+00    0.8113417E-01
  0.5209000E-01    0.1794699E-01    0.1794668E-01    0.5209009E-01    0.8113502E-01    0.1022383E+00    0.1133344E+00    0.1133373E+00    0.1022466E+00    0.8114774E-01
  0.5210584E-01    0.1796319E-01   -0.1793809E-01   -0.5208314E-01   -0.8112944E-01   -0.1022336E+00   -0.1133296E+00   -0.1133315E+00   -0.1022394E+00   -0.8113897E-01
 -0.5209604E-01   -0.1795377E-01    0.5208791E-01    0.1511751E+00    0.2354648E+00    0.2967062E+00    0.3289049E+00    0.3289092E+00    0.2967187E+00    0.2354842E+00
  0.1511990E+00    0.5211255E-01   -0.5207582E-01   -0.1511662E+00   -0.2354584E+00   -0.2967008E+00   -0.3288990E+00   -0.3289015E+00   -0.2967080E+00   -0.2354703E+00
 -0.1511831E+00   -0.5209689E-01    0.8112898E-01    0.2354608E+00    0.3667447E+00    0.4621298E+00    0.5122796E+00    0.5122856E+00    0.4621475E+00    0.3667730E+00
  0.2354964E+00    0.8116599E-01   -0.8111296E-01   -0.2354506E+00   -0.3667384E+00   -0.4621252E+00   -0.5122740E+00   -0.5122767E+00   -0.4621336E+00   -0.3667531E+00
 -0.2354723E+00   -0.8114251E-01    0.1022282E+00    0.2966969E+00    0.4621239E+00    0.5823156E+00    0.6455076E+00    0.6455156E+00    0.5823391E+00    0.4621627E+00
  0.2967489E+00    0.1022850E+00   -0.1022061E+00   -0.2966862E+00   -0.4621199E+00   -0.5823144E+00   -0.6455046E+00   -0.6455079E+00   -0.5823236E+00   -0.4621361E+00
 -0.2967131E+00   -0.1022471E+00    0.1133182E+00    0.3288884E+00    0.5122655E+00    0.6454983E+00    0.7155468E+00    0.7155560E+00    0.6455252E+00    0.5123126E+00
  0.3289616E+00    0.1134230E+00   -0.1132898E+00   -0.3288817E+00   -0.5122688E+00   -0.6455050E+00   -0.7155501E+00   -0.7155542E+00   -0.6455133E+00   -0.5122824E+00
 -0.3289109E+00   -0.1133435E+00   -0.1577463E+00   -0.1348448E+00   -0.9778871E-01   -0.6072157E-01   -0.3783384E-01   -0.3787516E-01   -0.6082340E-01   -0.9795561E-01
 -0.1351680E+00   -0.1586217E+00   -0.1581148E+00   -0.1351670E+00   -0.9807422E-01   -0.6096599E-01   -0.3807412E-01   -0.3801850E-01   -0.6086928E-01   -0.9796710E-01
 -0.1349237E+00   -0.1576864E+00   -0.1348673E+00   -0.1119831E+00   -0.7493569E-01   -0.3787523E-01   -0.1498772E-01   -0.1503455E-01   -0.3800125E-01   -0.7515329E-01
 -0.1123581E+00   -0.1354158E+00   -0.1352841E+00   -0.1123525E+00   -0.7522623E-01   -0.3808638E-01   -0.1519950E-01   -0.1513495E-01   -0.3796776E-01   -0.7507862E-01
 -0.1120400E+00   -0.1348001E+00   -0.9783361E-01   -0.7496189E-01   -0.3792199E-01   -0.8702512E-03    0.2202377E-01    0.2197393E-01   -0.1000291E-02   -0.3813693E-01
 -0.7531418E-01   -0.9828568E-01   -0.9823007E-01   -0.7532137E-01   -0.3820258E-01   -0.1041564E-02    0.2185217E-01    0.2190185E-01   -0.9085039E-03   -0.3801720E-01
 -0.7501462E-01   -0.9776033E-01   -0.6078457E-01   -0.3791695E-01   -0.8851553E-03    0.3616960E-01    0.5906071E-01    0.5900326E-01    0.3603925E-01   -0.1089397E-02
 -0.3825845E-01   -0.6119633E-01   -0.6116102E-01   -0.3827254E-01   -0.1145639E-02    0.3601441E-01    0.5889856E-01    0.5896539E-01    0.3615057E-01   -0.9765863E-03