 TITLE = "NAVIER-STOKES OUTPUT"
 VARIABLES = "X", "Y", "U", "V", "P", "Pex", "Vor"
 ZONE I =   21, J =   21, DATAPACKING = BLOCK, VARLOCATION=(3=CELLCENTERED, 4=CELLCENTERED,5=CELLCENTERED,6=CELLCENTERED, 7=CELLCENTERED)
  0.0000000E+00    0.3141593E+00    0.6283185E+00    0.9424778E+00    0.1256637E+01    0.1570796E+01    0.1884956E+01    0.2199115E+01    0.2513274E+01    0.2827433E+01
  0.3141593E+01    0.3455752E+01    0.3769911E+01    0.4084071E+01    0.4398230E+01    0.4712389E+01    0.5026548E+01    0.5340708E+01    0.5654867E+01    0.5969026E+01
  0.6283185E+01    0.0000000E+00    0.3141593E+00    0.6283185E+00    0.9424778E+00    0.1256637E+01    0.1570796E+01    0.1884956E+01    0.2199115E+01    0.2513274E+01
  0.2827433E+01    0.3141593E+01    0.3455752E+01    0.3769911E+01    0.4084071E+01    0.4398230E+01    0.4712389E+01    0.5026548E+01    0.5340708E+01    0.5654867E+01
  0.5969026E+01    0.6283185E+01    0.0000000E+00    0.3141593E+00    0.6283185E+00    0.9424778E+00    0.1256637E+01    0.1570796E+01    0.1884956E+01    0.2199115E+01
  0.2513274E+01    0.2827433E+01    0.3141593E+01    0.3455752E+01    0.3769911E+01    0.4084071E+01    0.4398230E+01    0.4712389E+01    0.5026548E+01    0.5340708E+01
  0.5654867E+01    0.5969026E+01    0.6283185E+01    0.0000000E+00    0.3141593E+00    0.6283185E+00    0.9424778E+00    0.1256637E+01    0.1570796E+01    0.1884956E+01
  0.2199115E+01    0.2513274E+01    0.2827433E+01    0.3141593E+01    0.3455752E+01    0.3769911E+01    0.4084071E+01    0.4398230E+01    0.4712389E+01    0.5026548E+01
  0.5340708E+01    0.5654867E+01    0.5969026E+01    0.6283185E+01    0.0000000E+00    0.3141593E+00    0.6283185E+00    0.9424778E+00    0.1256637E+01    0.1570796E+01
  0.1884956E+01    0.2199115E+01    0.2513274E+01    0.2827433E+01    0.3141593E+01    0.3455752E+01    0.3769911E+01    0.4084071E+01    0.4398230E+01    0.4712389E+01
  0.5026548E+01    0.5340708E+01    0.5654867E+01    0.5969026E+01    0.6283185E+01    0.0000000E+00    0.3141593E+00    0.6283185E+00    0.9424778E+00    0.1256637E+01
  0.1570796E+01    0.1884956E+01    0.2199115E+01    0.2513274E+01    0.2827433E+01    0.3141593E+01    0.3455752E+01    0.3769911E+01    0.4084071E+01    0.4398230E+01
  0.4712389E+01    0.5026548E+01    0.5340708E+01    0.5654867E+01    0.5969026E+01    0.6283185E+01    0.0000000E+00    0.3141593E+00    0.6283185E+00    0.9424778E+00
  0.1256637E+01    0.1570796E+01    0.1884956E+01    0.2199115E+01    0.2513274E+01    0.2827433E+01    0.3141593E+01    0.3455752E+01    0.3769911E+01    0.4084071E+01
  0.4398230E+01    0.4712389E+01    0.5026548E+01    0.5340708E+01    0.5654867E+01    0.5969026E+01    0.6283185E+01    0.0000000E+00    0.3141593E+00    0.6283185E+00
  0.9424778E+00    0.1256637E+01    0.1570796E+01    0.1884956E+01    0.2199115E+01    0.2513274E+01    0.2827433E+01    0.3141593E+01    0.3455752E+01    0.3769911E+01
  0.4084071E+01    0.4398230E+01    0.4712389E+01    0.5026548E+01    0.5340708E+01    0.5654867E+01    0.5969026E+01    0.6283185E+01    0.0000000E+00    0.3141593E+00
  0.6283185E+00    0.9424778E+00    0.1256637E+01    0.1570796E+01    0.1884956E+01    0.2199115E+01    0.2513274E+01    0.2827433E+01    0.3141593E+01    0.3455752E+01
  0.3769911E+01    0.4084071E+01    0.4398230E+01    0.4712389E+01    0.5026548E+01    0.5340708E+01    0.5654867E+01    0.5969026E+01    0.6283185E+01    0.0000000E+00
  0.3141593E+00    0.6283185E+00    0.9424778E+00    0.1256637E+01    0.1570796E+01    0.1884956E+01    0.2199115E+01    0.2513274E+01    0.2827433E+01    0.3141593E+01
  0.3455752E+01    0.3769911E+01    0.4084071E+01    0.4398230E+01    0.4712389E+01    0.5026548E+01    0.5340708E+01    0.5654867E+01    0.5969026E+01    0.6283185E+01
  0.0000000E+00    0.3141593E+00    0.6283185E+00    0.9424778E+00    0.1256637E+01    0.1570796E+01    0.1884956E+01    0.2199115E+01    0.2513274E+01    0.2827433E+01
  0.3141593E+01    0.3455752E+01    0.3769911E+01    0.4084071E+01    0.4398230E+01    0.4712389E+01    0.5026548E+01    0.5340708E+01    0.5654867E+01    0.5969026E+01
  0.6283185E+01    0.0000000E+00    0.3141593E+00    0.6283185E+00    0.9424778E+00    0.1256637E+01    0.1570796E+01    0.1884956E+01    0.2199115E+01    0.2513274E+01
  0.2827433E+01    0.3141593E+01    0.3455752E+01    0.3769911E+01    0.4084071E+01    0.4398230E+01    0.4712389E+01    0.5026548E+01    0.5340708E+01    0.5654867E+01
  0.5969026E+01    0.6283185E+01    0.0000000E+00    0.3141593E+00    0.6283185E+00    0.9424778E+00    0.1256637E+01    0.1570796E+01    0.1884956E+01    0.2199115E+01
  0.2513274E+01    0.2827433E+01    0.3141593E+01    0.3455752E+01    0.3769911E+01    0.4084071E+01    0.4398230E+01    0.4712389E+01    0.5026548E+01    0.5340708E+01
  0.5654867E+01    0.5969026E+01    0.6283185E+01    0.0000000E+00    0.3141593E+00    0.6283185E+00    0.9424778E+00    0.1256637E+01    0.1570796E+01    0.1884956E+01
  0.2199115E+01    0.2513274E+01    0.2827433E+01    0.3141593E+01    0.3455752E+01    0.3769911E+01    0.4084071E+01    0.4398230E+01    0.4712389E+01    0.5026548E+01
  0.5340708E+01    0.5654867E+01    0.5969026E+01    0.6283185E+01    0.0000000E+00    0.3141593E+00    0.6283185E+00    0.9424778E+00    0.1256637E+01    0.1570796E+01
  0.1884956E+01    0.2199115E+01    0.2513274E+01    0.2827433E+01    0.3141593E+01    0.3455752E+01    0.3769911E+01    0.4084071E+01    0.4398230E+01    0.4712389E+01
  0.5026548E+01    0.5340708E+01    0.5654867E+01    0.5969026E+01    0.6283185E+01    0.0000000E+00    0.3141593E+00    0.6283185E+00    0.9424778E+00    0.1256637E+01
  0.1570796E+01    0.1884956E+01    0.2199115E+01    0.2513274E+01    0.2827433E+01    0.3141593E+01    0.3455752E+01    0.3769911E+01    0.4084071E+01    0.4398230E+01
  0.4712389E+01    0.5026548E+01    0.5340708E+01    0.5654867E+01    0.5969026E+01    0.6283185E+01    0.0000000E+00    0.3141593E+00    0.6283185E+00    0.9424778E+00
  0.1256637E+01    0.1570796E+01    0.1884956E+01    0.2199115E+01    0.2513274E+01    0.2827433E+01    0.3141593E+01    0.3455752E+01    0.3769911E+01    0.4084071E+01
  0.4398230E+01    0.4712389E+01    0.5026548E+01    0.5340708E+01    0.5654867E+01    0.5969026E+01    0.6283185E+01    0.0000000E+00    0.3141593E+00    0.6283185E+00
  0.9424778E+00    0.1256637E+01    0.1570796E+01    0.1884956E+01    0.2199115E+01    0.2513274E+01    0.2827433E+01    0.3141593E+01    0.3455752E+01    0.3769911E+01
  0.4084071E+01    0.4398230E+01    0.4712389E+01    0.5026548E+01    0.5340708E+01    0.5654867E+01    0.5969026E+01    0.6283185E+01    0.0000000E+00    0.3141593E+00
  0.6283185E+00    0.9424778E+00    0.1256637E+01    0.1570796E+01    0.1884956E+01    0.2199115E+01    0.2513274E+01    0.2827433E+01    0.3141593E+01    0.3455752E+01
  0.3769911E+01    0.4084071E+01    0.4398230E+01    0.4712389E+01    0.5026548E+01    0.5340708E+01    0.5654867E+01    0.5969026E+01    0.6283185E+01    0.0000000E+00
  0.3141593E+00    0.6283185E+00    0.9424778E+00    0.1256637E+01    0.1570796E+01    0.1884956E+01    0.2199115E+01    0.2513274E+01    0.2827433E+01    0.3141593E+01
  0.3455752E+01    0.3769911E+01    0.4084071E+01    0.4398230E+01    0.4712389E+01    0.5026548E+01    0.5340708E+01    0.5654867E+01    0.5969026E+01    0.6283185E+01
  0.0000000E+00    0.3141593E+00    0.6283185E+00    0.9424778E+00    0.1256637E+01    0.1570796E+01    0.1884956E+01    0.2199115E+01    0.2513274E+01    0.2827433E+01
  0.3141593E+01    0.3455752E+01    0.3769911E+01    0.4084071E+01    0.4398230E+01    0.4712389E+01    0.5026548E+01    0.5340708E+01    0.5654867E+01    0.5969026E+01
  0.6283185E+01    0.0000000E+00    0.0000000E+00    0.0000000E+00    0.0000000E+00    0.0000000E+00    0.0000000E+00    0.0000000E+00    0.0000000E+00    0.0000000E+00
  0.0000000E+00    0.0000000E+00    0.0000000E+00    0.0000000E+00    0.0000000E+00    0.0000000E+00    0.0000000E+00    0.0000000E+00    0.0000000E+00    0.0000000E+00
  0.0000000E+00    0.0000000E+00    0.3141593E+00    0.3141593E+00    0.3141593E+00    0.3141593E+00    0.3141593E+00    0.3141593E+00    0.3141593E+00    0.3141593E+00
  0.3141593E+00    0.3141593E+00    0.3141593E+00    0.3141593E+00    0.3141593E+00    0.3141593E+00    0.3141593E+00    0.3141593E+00    0.3141593E+00    0.3141593E+00
  0.3141593E+00    0.3141593E+00    0.3141593E+00    0.6283185E+00    0.6283185E+00    0.6283185E+00    0.6283185E+00    0.6283185E+00    0.6283185E+00    0.6283185E+00
  0.6283185E+00    0.6283185E+00    0.6283185E+00    0.6283185E+00    0.6283185E+00    0.6283185E+00    0.6283185E+00    0.6283185E+00    0.6283185E+00    0.6283185E+00
  0.6283185E+00    0.6283185E+00    0.6283185E+00    0.6283185E+00    0.9424778E+00    0.9424778E+00    0.9424778E+00    0.9424778E+00    0.9424778E+00    0.9424778E+00
  0.9424778E+00    0.9424778E+00    0.9424778E+00    0.9424778E+00    0.9424778E+00    0.9424778E+00    0.9424778E+00    0.9424778E+00    0.9424778E+00    0.9424778E+00
  0.9424778E+00    0.9424778E+00    0.9424778E+00    0.9424778E+00    0.9424778E+00    0.1256637E+01    0.1256637E+01    0.1256637E+01    0.1256637E+01    0.1256637E+01
  0.1256637E+01    0.1256637E+01    0.1256637E+01    0.1256637E+01    0.1256637E+01    0.1256637E+01    0.1256637E+01    0.1256637E+01    0.1256637E+01    0.1256637E+01
  0.1256637E+01    0.1256637E+01    0.1256637E+01    0.1256637E+01    0.1256637E+01    0.1256637E+01    0.1570796E+01    0.1570796E+01    0.1570796E+01    0.1570796E+01
  0.1570796E+01    0.1570796E+01    0.1570796E+01    0.1570796E+01    0.1570796E+01    0.1570796E+01    0.1570796E+01    0.1570796E+01    0.1570796E+01    0.1570796E+01
  0.1570796E+01    0.1570796E+01    0.1570796E+01    0.1570796E+01    0.1570796E+01    0.1570796E+01    0.1570796E+01    0.1884956E+01    0.1884956E+01    0.1884956E+01
  0.1884956E+01    0.1884956E+01    0.1884956E+01    0.1884956E+01    0.1884956E+01    0.1884956E+01    0.1884956E+01    0.1884956E+01    0.1884956E+01    0.1884956E+01
  0.1884956E+01    0.1884956E+01    0.1884956E+01    0.1884956E+01    0.1884956E+01    0.1884956E+01    0.1884956E+01    0.1884956E+01    0.2199115E+01    0.2199115E+01
  0.2199115E+01    0.2199115E+01    0.2199115E+01    0.2199115E+01    0.2199115E+01    0.2199115E+01    0.2199115E+01    0.2199115E+01    0.2199115E+01    0.2199115E+01
  0.2199115E+01    0.2199115E+01    0.2199115E+01    0.2199115E+01    0.2199115E+01    0.2199115E+01    0.2199115E+01    0.2199115E+01    0.2199115E+01    0.2513274E+01
  0.2513274E+01    0.2513274E+01    0.2513274E+01    0.2513274E+01    0.2513274E+01    0.2513274E+01    0.2513274E+01    0.2513274E+01    0.2513274E+01    0.2513274E+01
  0.2513274E+01    0.2513274E+01    0.2513274E+01    0.2513274E+01    0.2513274E+01    0.2513274E+01    0.2513274E+01    0.2513274E+01    0.2513274E+01    0.2513274E+01
  0.2827433E+01    0.2827433E+01    0.2827433E+01    0.2827433E+01    0.2827433E+01    0.2827433E+01    0.2827433E+01    0.2827433E+01    0.2827433E+01    0.2827433E+01
  0.2827433E+01    0.2827433E+01    0.2827433E+01    0.2827433E+01    0.2827433E+01    0.2827433E+01    0.2827433E+01    0.2827433E+01    0.2827433E+01    0.2827433E+01
  0.2827433E+01    0.3141593E+01    0.3141593E+01    0.3141593E+01    0.3141593E+01    0.3141593E+01    0.3141593E+01    0.3141593E+01    0.3141593E+01    0.3141593E+01
  0.3141593E+01    0.3141593E+01    0.3141593E+01    0.3141593E+01    0.3141593E+01    0.3141593E+01    0.3141593E+01    0.3141593E+01    0.3141593E+01    0.3141593E+01
  0.3141593E+01    0.3141593E+01    0.3455752E+01    0.3455752E+01    0.3455752E+01    0.3455752E+01    0.3455752E+01    0.3455752E+01    0.3455752E+01    0.3455752E+01
  0.3455752E+01    0.3455752E+01    0.3455752E+01    0.3455752E+01    0.3455752E+01    0.3455752E+01    0.3455752E+01    0.3455752E+01    0.3455752E+01    0.3455752E+01
  0.3455752E+01    0.3455752E+01    0.3455752E+01    0.3769911E+01    0.3769911E+01    0.3769911E+01    0.3769911E+01    0.3769911E+01    0.3769911E+01    0.3769911E+01
  0.3769911E+01    0.3769911E+01    0.3769911E+01    0.3769911E+01    0.3769911E+01    0.3769911E+01    0.3769911E+01    0.3769911E+01    0.3769911E+01    0.3769911E+01
  0.3769911E+01    0.3769911E+01    0.3769911E+01    0.3769911E+01    0.4084071E+01    0.4084071E+01    0.4084071E+01    0.4084071E+01    0.4084071E+01    0.4084071E+01
  0.4084071E+01    0.4084071E+01    0.4084071E+01    0.4084071E+01    0.4084071E+01    0.4084071E+01    0.4084071E+01    0.4084071E+01    0.4084071E+01    0.4084071E+01
  0.4084071E+01    0.4084071E+01    0.4084071E+01    0.4084071E+01    0.4084071E+01    0.4398230E+01    0.4398230E+01    0.4398230E+01    0.4398230E+01    0.4398230E+01
  0.4398230E+01    0.4398230E+01    0.4398230E+01    0.4398230E+01    0.4398230E+01    0.4398230E+01    0.4398230E+01    0.4398230E+01    0.4398230E+01    0.4398230E+01
  0.4398230E+01    0.4398230E+01    0.4398230E+01    0.4398230E+01    0.4398230E+01    0.4398230E+01    0.4712389E+01    0.4712389E+01    0.4712389E+01    0.4712389E+01
  0.4712389E+01    0.4712389E+01    0.4712389E+01    0.4712389E+01    0.4712389E+01    0.4712389E+01    0.4712389E+01    0.4712389E+01    0.4712389E+01    0.4712389E+01
  0.4712389E+01    0.4712389E+01    0.4712389E+01    0.4712389E+01    0.4712389E+01    0.4712389E+01    0.4712389E+01    0.5026548E+01    0.5026548E+01    0.5026548E+01
  0.5026548E+01    0.5026548E+01    0.5026548E+01    0.5026548E+01    0.5026548E+01    0.5026548E+01    0.5026548E+01    0.5026548E+01    0.5026548E+01    0.5026548E+01
  0.5026548E+01    0.5026548E+01    0.5026548E+01    0.5026548E+01    0.5026548E+01    0.5026548E+01    0.5026548E+01    0.5026548E+01    0.5340708E+01    0.5340708E+01
  0.5340708E+01    0.5340708E+01    0.5340708E+01    0.5340708E+01    0.5340708E+01    0.5340708E+01    0.5340708E+01    0.5340708E+01    0.5340708E+01    0.5340708E+01
  0.5340708E+01    0.5340708E+01    0.5340708E+01    0.5340708E+01    0.5340708E+01    0.5340708E+01    0.5340708E+01    0.5340708E+01    0.5340708E+01    0.5654867E+01
  0.5654867E+01    0.5654867E+01    0.5654867E+01    0.5654867E+01    0.5654867E+01    0.5654867E+01    0.5654867E+01    0.5654867E+01    0.5654867E+01    0.5654867E+01
  0.5654867E+01    0.5654867E+01    0.5654867E+01    0.5654867E+01    0.5654867E+01    0.5654867E+01    0.5654867E+01    0.5654867E+01    0.5654867E+01    0.5654867E+01
  0.5969026E+01    0.5969026E+01    0.5969026E+01    0.5969026E+01    0.5969026E+01    0.5969026E+01    0.5969026E+01    0.5969026E+01    0.5969026E+01    0.5969026E+01
  0.5969026E+01    0.5969026E+01    0.5969026E+01    0.5969026E+01    0.5969026E+01    0.5969026E+01    0.5969026E+01    0.5969026E+01    0.5969026E+01    0.5969026E+01
  0.5969026E+01    0.6283185E+01    0.6283185E+01    0.6283185E+01    0.6283185E+01    0.6283185E+01    0.6283185E+01    0.6283185E+01    0.6283185E+01    0.6283185E+01
  0.6283185E+01    0.6283185E+01    0.6283185E+01    0.6283185E+01    0.6283185E+01    0.6283185E+01    0.6283185E+01    0.6283185E+01    0.6283185E+01    0.6283185E+01
  0.6283185E+01    0.6283185E+01   -0.8600450E-02   -0.7758850E-02   -0.6157712E-02   -0.3953875E-02   -0.1363193E-02    0.1361027E-02    0.3951921E-02    0.6155930E-02
  0.7757376E-02    0.8599710E-02    0.8600259E-02    0.7758953E-02    0.6157808E-02    0.3953733E-02    0.1363405E-02   -0.1360804E-02   -0.3951870E-02   -0.6155321E-02
 -0.7756717E-02   -0.8599258E-02   -0.2495579E-01   -0.2251291E-01   -0.1786624E-01   -0.1147067E-01   -0.3952319E-02    0.3952936E-02    0.1147116E-01    0.1786644E-01
  0.2251304E-01    0.2495596E-01    0.2495603E-01    0.2251331E-01    0.1786645E-01    0.1147070E-01    0.3952600E-02   -0.3952567E-02   -0.1147081E-01   -0.1786581E-01
 -0.2251226E-01   -0.2495520E-01   -0.3886833E-01   -0.3506335E-01   -0.2782596E-01   -0.1786467E-01   -0.6154649E-02    0.6157854E-02    0.1786754E-01    0.2782814E-01
  0.3506484E-01    0.3886924E-01    0.3886884E-01    0.3506367E-01    0.2782606E-01    0.1786470E-01    0.6154908E-02   -0.6157400E-02   -0.1786699E-01   -0.2782744E-01
 -0.3506406E-01   -0.3886857E-01   -0.4897677E-01   -0.4418185E-01   -0.3506208E-01   -0.2251014E-01   -0.7754728E-02    0.7759827E-02    0.2251473E-01    0.3506566E-01
  0.4418418E-01    0.4897760E-01    0.4897672E-01    0.4418174E-01    0.3506185E-01    0.2250991E-01    0.7754788E-02   -0.7759495E-02   -0.2251427E-01   -0.3506502E-01
 -0.4418350E-01   -0.4897718E-01   -0.5429084E-01   -0.4897561E-01   -0.3886625E-01   -0.2495236E-01   -0.8595909E-02    0.8601994E-02    0.2495779E-01    0.3887049E-01
  0.4897825E-01    0.5429156E-01    0.5429043E-01    0.4897504E-01    0.3886557E-01    0.2495174E-01    0.8595589E-02   -0.8602033E-02   -0.2495765E-01   -0.3887017E-01
 -0.4897792E-01   -0.5429136E-01   -0.5429049E-01   -0.4897537E-01   -0.3886607E-01   -0.2495221E-01   -0.8595836E-02    0.8601950E-02    0.2495764E-01    0.3887020E-01
  0.4897782E-01    0.5429103E-01    0.5428978E-01    0.4897431E-01    0.3886489E-01    0.2495108E-01    0.8594987E-02   -0.8602499E-02   -0.2495804E-01   -0.3887050E-01
 -0.4897813E-01   -0.5429171E-01   -0.4897657E-01   -0.4418139E-01   -0.3506155E-01   -0.2250969E-01   -0.7754474E-02    0.7759801E-02    0.2251435E-01    0.3506490E-01
  0.4418302E-01    0.4897601E-01    0.4897479E-01    0.4417966E-01    0.3505979E-01    0.2250800E-01    0.7753065E-02   -0.7760961E-02   -0.2251543E-01   -0.3506588E-01
 -0.4418406E-01   -0.4897744E-01   -0.3886789E-01   -0.3506251E-01   -0.2782498E-01   -0.1786382E-01   -0.6154067E-02    0.6158015E-02    0.1786714E-01    0.2782720E-01
  0.3506322E-01    0.3886682E-01    0.3886582E-01    0.3506030E-01    0.2782272E-01    0.1786165E-01    0.6152112E-02   -0.6159799E-02   -0.1786882E-01   -0.2782882E-01
 -0.3506490E-01   -0.3886851E-01   -0.2495470E-01   -0.2251154E-01   -0.1786477E-01   -0.1146932E-01   -0.3951287E-02    0.3953421E-02    0.1147100E-01    0.1786554E-01
  0.2251115E-01    0.2495309E-01    0.2495228E-01    0.2250890E-01    0.1786213E-01    0.1146674E-01    0.3948846E-02   -0.3955679E-02   -0.1147324E-01   -0.1786783E-01
 -0.2251350E-01   -0.2495578E-01   -0.8599629E-02   -0.7757279E-02   -0.6155901E-02   -0.3952176E-02   -0.1361753E-02    0.1361872E-02    0.3951968E-02    0.6155044E-02
  0.7755558E-02    0.8596679E-02    0.8596149E-02    0.7754163E-02    0.6152928E-02    0.3949263E-02    0.1359021E-02   -0.1364508E-02   -0.3954674E-02   -0.6157735E-02
 -0.7758326E-02   -0.8599722E-02    0.8598319E-02    0.7756646E-02    0.6155608E-02    0.3951838E-02    0.1361104E-02   -0.1363024E-02   -0.3953933E-02   -0.6157913E-02
 -0.7759272E-02   -0.8601290E-02   -0.8601424E-02   -0.7759744E-02   -0.6158669E-02   -0.3954804E-02   -0.1363994E-02    0.1360136E-02    0.3951048E-02    0.6155033E-02
  0.7756389E-02    0.8598687E-02    0.2495436E-01    0.2251120E-01    0.1786449E-01    0.1146898E-01    0.3950641E-02   -0.3954559E-02   -0.1147280E-01   -0.1786820E-01
 -0.2251465E-01   -0.2495731E-01   -0.2495717E-01   -0.2251416E-01   -0.1786740E-01   -0.1147190E-01   -0.3953577E-02    0.3951673E-02    0.1146982E-01    0.1786509E-01
  0.2251153E-01    0.2495398E-01    0.3886654E-01    0.3506176E-01    0.2782451E-01    0.1786332E-01    0.6153350E-02   -0.6159067E-02   -0.1786880E-01   -0.2782953E-01
 -0.3506616E-01   -0.3887047E-01   -0.3887001E-01   -0.3506470E-01   -0.2782728E-01   -0.1786611E-01   -0.6156092E-02    0.6156249E-02    0.1786579E-01    0.2782653E-01
  0.3506310E-01    0.3886713E-01    0.4897569E-01    0.4418067E-01    0.3506090E-01    0.2250899E-01    0.7753628E-02   -0.7760858E-02   -0.2251580E-01   -0.3506678E-01
 -0.4418532E-01   -0.4897882E-01   -0.4897796E-01   -0.4418299E-01   -0.3506327E-01   -0.2251137E-01   -0.7756122E-02    0.7758186E-02    0.2251306E-01    0.3506405E-01
  0.4418268E-01    0.4897669E-01    0.5429013E-01    0.4897458E-01    0.3886510E-01    0.2495118E-01    0.8594732E-02   -0.8603122E-02   -0.2495891E-01   -0.3887168E-01
 -0.4897945E-01   -0.5429279E-01   -0.5429176E-01   -0.4897639E-01   -0.3886692E-01   -0.2495317E-01   -0.8596938E-02    0.8600821E-02    0.2495643E-01    0.3886905E-01
  0.4897691E-01    0.5429012E-01    0.5428920E-01    0.4897406E-01    0.3886470E-01    0.2495078E-01    0.8594356E-02   -0.8603400E-02   -0.2495911E-01   -0.3887169E-01
 -0.4897918E-01   -0.5429240E-01   -0.5429119E-01   -0.4897556E-01   -0.3886614E-01   -0.2495239E-01   -0.8596087E-02    0.8601419E-02    0.2495686E-01    0.3886950E-01
  0.4897708E-01    0.5429019E-01    0.4897546E-01    0.4418002E-01    0.3505998E-01    0.2250794E-01    0.7752610E-02   -0.7761670E-02   -0.2251624E-01   -0.3506672E-01
 -0.4418466E-01   -0.4897756E-01   -0.4897615E-01   -0.4418080E-01   -0.3506088E-01   -0.2250897E-01   -0.7753929E-02    0.7760031E-02    0.2251451E-01    0.3506503E-01
  0.4418316E-01    0.4897668E-01    0.3886678E-01    0.3506093E-01    0.2782314E-01    0.1786177E-01    0.6151889E-02   -0.6160254E-02   -0.1786936E-01   -0.2782930E-01
 -0.3506509E-01   -0.3886839E-01   -0.3886716E-01   -0.3506141E-01   -0.2782353E-01   -0.1786239E-01   -0.6152833E-02    0.6159176E-02    0.1786808E-01    0.2782792E-01
  0.3506397E-01    0.3886733E-01    0.2495262E-01    0.2250948E-01    0.1786267E-01    0.1146712E-01    0.3948924E-02   -0.3955837E-02   -0.1147335E-01   -0.1786776E-01
 -0.2251303E-01   -0.2495464E-01   -0.2495369E-01   -0.2250994E-01   -0.1786280E-01   -0.1146743E-01   -0.3949398E-02    0.3955252E-02    0.1147252E-01    0.1786708E-01
  0.2251270E-01    0.2495411E-01    0.8597134E-02    0.7755061E-02    0.6153767E-02    0.3949992E-02    0.1359441E-02   -0.1364183E-02   -0.3954182E-02   -0.6157111E-02
 -0.7757332E-02   -0.8598118E-02   -0.8597504E-02   -0.7755280E-02   -0.6153605E-02   -0.3949987E-02   -0.1359680E-02    0.1364097E-02    0.3954097E-02    0.6157188E-02
  0.7758062E-02    0.8599603E-02    0.8594263E-02    0.2494926E-01    0.3886071E-01    0.4896622E-01    0.5427684E-01    0.5427278E-01    0.4895376E-01    0.3884173E-01
  0.2492629E-01    0.8569882E-02   -0.8628013E-02   -0.2498209E-01   -0.3889311E-01   -0.4899653E-01   -0.5430626E-01   -0.5430317E-01   -0.4898458E-01   -0.3887356E-01
 -0.2495986E-01   -0.8602939E-02    0.7752563E-02    0.2250640E-01    0.3505572E-01    0.4417178E-01    0.4896218E-01    0.4895799E-01    0.4415941E-01    0.3503672E-01
  0.2248330E-01    0.7727515E-02   -0.7786368E-02   -0.2253951E-01   -0.3508775E-01   -0.4420223E-01   -0.4899192E-01   -0.4898822E-01   -0.4419044E-01   -0.3506899E-01
 -0.2251661E-01   -0.7761029E-02    0.6151405E-02    0.1785971E-01    0.2781837E-01    0.3505231E-01    0.3885328E-01    0.3884916E-01    0.3504035E-01    0.2779990E-01
  0.1783689E-01    0.6126553E-02   -0.6185124E-02   -0.1789269E-01   -0.2785013E-01   -0.3508283E-01   -0.3888325E-01   -0.3887945E-01   -0.3507150E-01   -0.2783229E-01
 -0.1787022E-01   -0.6160165E-02    0.3947267E-02    0.1146392E-01    0.1785700E-01    0.2250047E-01    0.2493965E-01    0.2493576E-01    0.2248916E-01    0.1783949E-01
  0.1144215E-01    0.3923410E-02   -0.3980828E-02   -0.1149671E-01   -0.1788866E-01   -0.2253113E-01   -0.2496987E-01   -0.2496626E-01   -0.2252051E-01   -0.1787192E-01
 -0.1147544E-01   -0.3957023E-02    0.1355870E-02    0.3945102E-02    0.6146670E-02    0.7744906E-02    0.8583287E-02    0.8579684E-02    0.7734462E-02    0.6130503E-02
  0.3924943E-02    0.1333778E-02   -0.1389284E-02   -0.3977751E-02   -0.6178352E-02   -0.7775761E-02   -0.8613814E-02   -0.8610501E-02   -0.7766007E-02   -0.6162977E-02
 -0.3958200E-02   -0.1367334E-02   -0.1368727E-02   -0.3960589E-02   -0.6166235E-02   -0.7769886E-02   -0.8614683E-02   -0.8617964E-02   -0.7779355E-02   -0.6180896E-02
 -0.3978933E-02   -0.1388873E-02    0.1335741E-02    0.3928177E-02    0.6134608E-02    0.7738886E-02    0.8583890E-02    0.8586919E-02    0.7747674E-02    0.6148411E-02
  0.3945832E-02    0.1355555E-02   -0.3960205E-02   -0.1147945E-01   -0.1787652E-01   -0.2252533E-01   -0.2497089E-01   -0.2497380E-01   -0.2253380E-01   -0.1788966E-01
 -0.1149584E-01   -0.3978209E-02    0.3927416E-02    0.1144719E-01    0.1784485E-01    0.2249411E-01    0.2493983E-01    0.2494248E-01    0.2250193E-01    0.1785719E-01
  0.1146291E-01    0.3945195E-02   -0.6164837E-02   -0.1787547E-01   -0.2783792E-01   -0.3507705E-01   -0.3888422E-01   -0.3888681E-01   -0.3508457E-01   -0.2784956E-01
 -0.1789001E-01   -0.6180749E-02    0.6132128E-02    0.1784322E-01    0.2780614E-01    0.3504563E-01    0.3885289E-01    0.3885524E-01    0.3505260E-01    0.2781711E-01
  0.1785715E-01    0.6147866E-02   -0.7766373E-02   -0.2252236E-01   -0.3507523E-01   -0.4419626E-01   -0.4899269E-01   -0.4899504E-01   -0.4420300E-01   -0.3508567E-01
 -0.2253547E-01   -0.7780782E-02    0.7734025E-02    0.2249026E-01    0.3504349E-01    0.4416476E-01    0.4896122E-01    0.4896341E-01    0.4417103E-01    0.3505327E-01
  0.2250281E-01    0.7748105E-02   -0.8608724E-02   -0.2496557E-01   -0.3888017E-01   -0.4899052E-01   -0.5430697E-01   -0.5430907E-01   -0.4899667E-01   -0.3888973E-01
 -0.2497749E-01   -0.8621834E-02    0.8576278E-02    0.2493343E-01    0.3884831E-01    0.4895884E-01    0.5427537E-01    0.5427733E-01    0.4896462E-01    0.3885743E-01
  0.2494500E-01    0.8589341E-02   -0.8609232E-02   -0.2496586E-01   -0.3888029E-01   -0.4899049E-01   -0.5430676E-01   -0.5430877E-01   -0.4899629E-01   -0.3888925E-01
 -0.2497707E-01   -0.8621493E-02    0.8576574E-02    0.2493352E-01    0.3884823E-01    0.4895870E-01    0.5427504E-01    0.5427691E-01    0.4896427E-01    0.3885698E-01
  0.2494452E-01    0.8588866E-02   -0.7767215E-02   -0.2252288E-01   -0.3507538E-01   -0.4419601E-01   -0.4899205E-01   -0.4899406E-01   -0.4420176E-01   -0.3508432E-01
 -0.2253415E-01   -0.7779651E-02    0.7734811E-02    0.2249060E-01    0.3504339E-01    0.4416423E-01    0.4896034E-01    0.4896233E-01    0.4416984E-01    0.3505208E-01
  0.2250170E-01    0.7747012E-02   -0.6165985E-02   -0.1787622E-01   -0.2783812E-01   -0.3507662E-01   -0.3888322E-01   -0.3888526E-01   -0.3508262E-01   -0.2784746E-01
 -0.1788790E-01   -0.6178940E-02    0.6133346E-02    0.1784383E-01    0.2780600E-01    0.3504475E-01    0.3885156E-01    0.3885357E-01    0.3505069E-01    0.2781533E-01
  0.1785557E-01    0.6146431E-02   -0.3961999E-02   -0.1148054E-01   -0.1787686E-01   -0.2252491E-01   -0.2496968E-01   -0.2497193E-01   -0.2253143E-01   -0.1788696E-01
 -0.1149322E-01   -0.3975983E-02    0.3929051E-02    0.1144790E-01    0.1784461E-01    0.2249309E-01    0.2493804E-01    0.2494024E-01    0.2249960E-01    0.1785482E-01
  0.1146068E-01    0.3943234E-02   -0.1370261E-02   -0.3961523E-02   -0.6166465E-02   -0.7769326E-02   -0.8613309E-02   -0.8615847E-02   -0.7776638E-02   -0.6177880E-02
 -0.3975965E-02   -0.1386274E-02    0.1337571E-02    0.3929004E-02    0.6134432E-02    0.7737685E-02    0.8581873E-02    0.8584467E-02    0.7744965E-02    0.6145696E-02
  0.3943402E-02    0.1353400E-02    0.1354550E-02    0.3944303E-02    0.6146513E-02    0.7745505E-02    0.8584653E-02    0.8581812E-02    0.7737182E-02    0.6133518E-02
  0.3927970E-02    0.1336366E-02   -0.1387488E-02   -0.3976854E-02   -0.6178551E-02   -0.7777043E-02   -0.8615804E-02   -0.8613028E-02   -0.7768837E-02   -0.6165637E-02
 -0.3960551E-02   -0.1369241E-02    0.3945991E-02    0.1146323E-01    0.1785686E-01    0.2250094E-01    0.2494083E-01    0.2493759E-01    0.2249151E-01    0.1784218E-01
  0.1144472E-01    0.3925497E-02   -0.3979245E-02   -0.1149601E-01   -0.1788897E-01   -0.2253226E-01   -0.2497183E-01   -0.2496873E-01   -0.2252303E-01   -0.1787445E-01
 -0.1147773E-01   -0.3958720E-02    0.6151119E-02    0.1785962E-01    0.2781851E-01    0.3505285E-01    0.3885432E-01    0.3885065E-01    0.3504227E-01    0.2780199E-01
  0.1783867E-01    0.6127901E-02   -0.6184129E-02   -0.1789232E-01   -0.2785034E-01   -0.3508383E-01   -0.3888502E-01   -0.3888139E-01   -0.3507361E-01   -0.2783444E-01
 -0.1787184E-01   -0.6161278E-02    0.7753000E-02    0.2250671E-01    0.3505602E-01    0.4417228E-01    0.4896294E-01    0.4895894E-01    0.4416063E-01    0.3503788E-01
  0.2248388E-01    0.7727651E-02   -0.7786260E-02   -0.2253961E-01   -0.3508794E-01   -0.4420296E-01   -0.4899335E-01   -0.4898955E-01   -0.4419190E-01   -0.3507045E-01
 -0.2251727E-01   -0.7760950E-02    0.8594864E-02    0.2494973E-01    0.3886090E-01    0.4896647E-01    0.5427727E-01    0.5427287E-01    0.4895399E-01    0.3884172E-01
  0.2492550E-01    0.8568199E-02   -0.8628382E-02   -0.2498336E-01   -0.3889328E-01   -0.4899661E-01   -0.5430790E-01   -0.5430374E-01   -0.4898499E-01   -0.3887478E-01
 -0.2495977E-01   -0.8601478E-02    0.1112306E-02    0.1215324E-02    0.1485473E-02    0.1687324E-02    0.1829981E-02    0.1863877E-02    0.1604593E-02    0.1253105E-02
  0.9221922E-03    0.5103569E-03    0.6815965E-03    0.1010909E-02    0.1174718E-02    0.1549051E-02    0.1924041E-02    0.1797437E-02    0.1859539E-02    0.1727277E-02
  0.1324337E-02    0.1207851E-02    0.1252621E-02    0.1360691E-02    0.1618544E-02    0.1850618E-02    0.2020542E-02    0.2041271E-02    0.1815877E-02    0.1505129E-02
  0.1168298E-02    0.8584733E-03    0.9286777E-03    0.1192084E-02    0.1382691E-02    0.1765982E-02    0.2082782E-02    0.2009146E-02    0.2149502E-02    0.1904375E-02
  0.1478947E-02    0.1446931E-02    0.1557713E-02    0.1658108E-02    0.1932299E-02    0.2202327E-02    0.2343633E-02    0.2369499E-02    0.2170673E-02    0.1843256E-02
  0.1539309E-02    0.1283837E-02    0.1284397E-02    0.1536441E-02    0.1779509E-02    0.2097943E-02    0.2388810E-02    0.2410382E-02    0.2465079E-02    0.2154258E-02
  0.1780418E-02    0.1680189E-02    0.1772806E-02    0.1907996E-02    0.2221562E-02    0.2476073E-02    0.2628758E-02    0.2673810E-02    0.2424305E-02    0.2120228E-02
  0.1864875E-02    0.1572032E-02    0.1589431E-02    0.1879502E-02    0.2082546E-02    0.2414858E-02    0.2717798E-02    0.2706091E-02    0.2717339E-02    0.2376152E-02