 TITLE = "NAVIER-STOKES OUTPUT"
 VARIABLES = "X", "Y", "U", "V", "P", "Pex", "Vor"
 ZONE I =   21, J =   21, DATAPACKING = BLOCK, VARLOCATION=(3=CELLCENTERED, 4=CELLCENTERED,5=CELLCENTERED,6=CELLCENTERED, 7=CELLCENTERED)
  0.0000000E+00    0.3141593E+00    0.6283185E+00    0.9424778E+00    0.1256637E+01    0.1570796E+01    0.1884956E+01    0.2199115E+01    0.2513274E+01    0.2827433E+01
  0.3141593E+01    0.3455752E+01    0.3769911E+01    0.4084071E+01    0.4398230E+01    0.4712389E+01    0.5026548E+01    0.5340708E+01    0.5654867E+01    0.5969026E+01
  0.6283185E+01    0.0000000E+00    0.3141593E+00    0.6283185E+00    0.9424778E+00    0.1256637E+01    0.1570796E+01    0.1884956E+01    0.2199115E+01    0.2513274E+01
  0.2827433E+01    0.3141593E+01    0.3455752E+01    0.3769911E+01    0.4084071E+01    0.4398230E+01    0.4712389E+01    0.5026548E+01    0.5340708E+01    0.5654867E+01
  0.5969026E+01    0.6283185E+01    0.0000000E+00    0.3141593E+00    0.6283185E+00    0.9424778E+00    0.1256637E+01    0.1570796E+01    0.1884956E+01    0.2199115E+01
  0.2513274E+01    0.2827433E+01    0.3141593E+01    0.3455752E+01    0.3769911E+01    0.4084071E+01    0.4398230E+01    0.4712389E+01    0.5026548E+01    0.5340708E+01
  0.5654867E+01    0.5969026E+01    0.6283185E+01    0.0000000E+00    0.3141593E+00    0.6283185E+00    0.9424778E+00    0.1256637E+01    0.1570796E+01    0.1884956E+01
  0.2199115E+01    0.2513274E+01    0.2827433E+01    0.3141593E+01    0.3455752E+01    0.3769911E+01    0.4084071E+01    0.4398230E+01    0.4712389E+01    0.5026548E+01
  0.5340708E+01    0.5654867E+01    0.5969026E+01    0.6283185E+01    0.0000000E+00    0.3141593E+00    0.6283185E+00    0.9424778E+00    0.1256637E+01    0.1570796E+01
  0.1884956E+01    0.2199115E+01    0.2513274E+01    0.2827433E+01    0.3141593E+01    0.3455752E+01    0.3769911E+01    0.4084071E+01    0.4398230E+01    0.4712389E+01
  0.5026548E+01    0.5340708E+01    0.5654867E+01    0.5969026E+01    0.6283185E+01    0.0000000E+00    0.3141593E+00    0.6283185E+00    0.9424778E+00    0.1256637E+01
  0.1570796E+01    0.1884956E+01    0.2199115E+01    0.2513274E+01    0.2827433E+01    0.3141593E+01    0.3455752E+01    0.3769911E+01    0.4084071E+01    0.4398230E+01
  0.4712389E+01    0.5026548E+01    0.5340708E+01    0.5654867E+01    0.5969026E+01    0.6283185E+01    0.0000000E+00    0.3141593E+00    0.6283185E+00    0.9424778E+00
  0.1256637E+01    0.1570796E+01    0.1884956E+01    0.2199115E+01    0.2513274E+01    0.2827433E+01    0.3141593E+01    0.3455752E+01    0.3769911E+01    0.4084071E+01
  0.4398230E+01    0.4712389E+01    0.5026548E+01    0.5340708E+01    0.5654867E+01    0.5969026E+01    0.6283185E+01    0.0000000E+00    0.3141593E+00    0.6283185E+00
  0.9424778E+00    0.1256637E+01    0.1570796E+01    0.1884956E+01    0.2199115E+01    0.2513274E+01    0.2827433E+01    0.3141593E+01    0.3455752E+01    0.3769911E+01
  0.4084071E+01    0.4398230E+01    0.4712389E+01    0.5026548E+01    0.5340708E+01    0.5654867E+01    0.5969026E+01    0.6283185E+01    0.0000000E+00    0.3141593E+00
  0.6283185E+00    0.9424778E+00    0.1256637E+01    0.1570796E+01    0.1884956E+01    0.2199115E+01    0.2513274E+01    0.2827433E+01    0.3141593E+01    0.3455752E+01
  0.3769911E+01    0.4084071E+01    0.4398230E+01    0.4712389E+01    0.5026548E+01    0.5340708E+01    0.5654867E+01    0.5969026E+01    0.6283185E+01    0.0000000E+00
  0.3141593E+00    0.6283185E+00    0.9424778E+00    0.1256637E+01    0.1570796E+01    0.1884956E+01    0.2199115E+01    0.2513274E+01    0.2827433E+01    0.3141593E+01
  0.3455752E+01    0.3769911E+01    0.4084071E+01    0.4398230E+01    0.4712389E+01    0.5026548E+01    0.5340708E+01    0.5654867E+01    0.5969026E+01    0.6283185E+01
  0.0000000E+00    0.3141593E+00    0.6283185E+00    0.9424778E+00    0.1256637E+01    0.1570796E+01    0.1884956E+01    0.2199115E+01    0.2513274E+01    0.2827433E+01
  0.3141593E+01    0.3455752E+01    0.3769911E+01    0.4084071E+01    0.4398230E+01    0.4712389E+01    0.5026548E+01    0.5340708E+01    0.5654867E+01    0.5969026E+01
  0.6283185E+01    0.0000000E+00    0.3141593E+00    0.6283185E+00    0.9424778E+00    0.1256637E+01    0.1570796E+01    0.1884956E+01    0.2199115E+01    0.2513274E+01
  0.2827433E+01    0.3141593E+01    0.3455752E+01    0.3769911E+01    0.4084071E+01    0.4398230E+01    0.4712389E+01    0.5026548E+01    0.5340708E+01    0.5654867E+01
  0.5969026E+01    0.6283185E+01    0.0000000E+00    0.3141593E+00    0.6283185E+00    0.9424778E+00    0.1256637E+01    0.1570796E+01    0.1884956E+01    0.2199115E+01
  0.2513274E+01    0.2827433E+01    0.3141593E+01    0.3455752E+01    0.3769911E+01    0.4084071E+01    0.4398230E+01    0.4712389E+01    0.5026548E+01    0.5340708E+01
  0.5654867E+01    0.5969026E+01    0.6283185E+01    0.0000000E+00    0.3141593E+00    0.6283185E+00    0.9424778E+00    0.1256637E+01    0.1570796E+01    0.1884956E+01
  0.2199115E+01    0.2513274E+01    0.2827433E+01    0.3141593E+01    0.3455752E+01    0.3769911E+01    0.4084071E+01    0.4398230E+01    0.4712389E+01    0.5026548E+01
  0.5340708E+01    0.5654867E+01    0.5969026E+01    0.6283185E+01    0.0000000E+00    0.3141593E+00    0.6283185E+00    0.9424778E+00    0.1256637E+01    0.1570796E+01
  0.1884956E+01    0.2199115E+01    0.2513274E+01    0.2827433E+01    0.3141593E+01    0.3455752E+01    0.3769911E+01    0.4084071E+01    0.4398230E+01    0.4712389E+01
  0.5026548E+01    0.5340708E+01    0.5654867E+01    0.5969026E+01    0.6283185E+01    0.0000000E+00    0.3141593E+00    0.6283185E+00    0.9424778E+00    0.1256637E+01
  0.1570796E+01    0.1884956E+01    0.2199115E+01    0.2513274E+01    0.2827433E+01    0.3141593E+01    0.3455752E+01    0.3769911E+01    0.4084071E+01    0.4398230E+01
  0.4712389E+01    0.5026548E+01    0.5340708E+01    0.5654867E+01    0.5969026E+01    0.6283185E+01    0.0000000E+00    0.3141593E+00    0.6283185E+00    0.9424778E+00
  0.1256637E+01    0.1570796E+01    0.1884956E+01    0.2199115E+01    0.2513274E+01    0.2827433E+01    0.3141593E+01    0.3455752E+01    0.3769911E+01    0.4084071E+01
  0.4398230E+01    0.4712389E+01    0.5026548E+01    0.5340708E+01    0.5654867E+01    0.5969026E+01    0.6283185E+01    0.0000000E+00    0.3141593E+00    0.6283185E+00
  0.9424778E+00    0.1256637E+01    0.1570796E+01    0.1884956E+01    0.2199115E+01    0.2513274E+01    0.2827433E+01    0.3141593E+01    0.3455752E+01    0.3769911E+01
  0.4084071E+01    0.4398230E+01    0.4712389E+01    0.5026548E+01    0.5340708E+01    0.5654867E+01    0.5969026E+01    0.6283185E+01    0.0000000E+00    0.3141593E+00
  0.6283185E+00    0.9424778E+00    0.1256637E+01    0.1570796E+01    0.1884956E+01    0.2199115E+01    0.2513274E+01    0.2827433E+01    0.3141593E+01    0.3455752E+01
  0.3769911E+01    0.4084071E+01    0.4398230E+01    0.4712389E+01    0.5026548E+01    0.5340708E+01    0.5654867E+01    0.5969026E+01    0.6283185E+01    0.0000000E+00
  0.3141593E+00    0.6283185E+00    0.9424778E+00    0.1256637E+01    0.1570796E+01    0.1884956E+01    0.2199115E+01    0.2513274E+01    0.2827433E+01    0.3141593E+01
  0.3455752E+01    0.3769911E+01    0.4084071E+01    0.4398230E+01    0.4712389E+01    0.5026548E+01    0.5340708E+01    0.5654867E+01    0.5969026E+01    0.6283185E+01
  0.0000000E+00    0.3141593E+00    0.6283185E+00    0.9424778E+00    0.1256637E+01    0.1570796E+01    0.1884956E+01    0.2199115E+01    0.2513274E+01    0.2827433E+01
  0.3141593E+01    0.3455752E+01    0.3769911E+01    0.4084071E+01    0.4398230E+01    0.4712389E+01    0.5026548E+01    0.5340708E+01    0.5654867E+01    0.5969026E+01
  0.6283185E+01    0.0000000E+00    0.0000000E+00    0.0000000E+00    0.0000000E+00    0.0000000E+00    0.0000000E+00    0.0000000E+00    0.0000000E+00    0.0000000E+00
  0.0000000E+00    0.0000000E+00    0.0000000E+00    0.0000000E+00    0.0000000E+00    0.0000000E+00    0.0000000E+00    0.0000000E+00    0.0000000E+00    0.0000000E+00
  0.0000000E+00    0.0000000E+00    0.3141593E+00    0.3141593E+00    0.3141593E+00    0.3141593E+00    0.3141593E+00    0.3141593E+00    0.3141593E+00    0.3141593E+00
  0.3141593E+00    0.3141593E+00    0.3141593E+00    0.3141593E+00    0.3141593E+00    0.3141593E+00    0.3141593E+00    0.3141593E+00    0.3141593E+00    0.3141593E+00
  0.3141593E+00    0.3141593E+00    0.3141593E+00    0.6283185E+00    0.6283185E+00    0.6283185E+00    0.6283185E+00    0.6283185E+00    0.6283185E+00    0.6283185E+00
  0.6283185E+00    0.6283185E+00    0.6283185E+00    0.6283185E+00    0.6283185E+00    0.6283185E+00    0.6283185E+00    0.6283185E+00    0.6283185E+00    0.6283185E+00
  0.6283185E+00    0.6283185E+00    0.6283185E+00    0.6283185E+00    0.9424778E+00    0.9424778E+00    0.9424778E+00    0.9424778E+00    0.9424778E+00    0.9424778E+00
  0.9424778E+00    0.9424778E+00    0.9424778E+00    0.9424778E+00    0.9424778E+00    0.9424778E+00    0.9424778E+00    0.9424778E+00    0.9424778E+00    0.9424778E+00
  0.9424778E+00    0.9424778E+00    0.9424778E+00    0.9424778E+00    0.9424778E+00    0.1256637E+01    0.1256637E+01    0.1256637E+01    0.1256637E+01    0.1256637E+01
  0.1256637E+01    0.1256637E+01    0.1256637E+01    0.1256637E+01    0.1256637E+01    0.1256637E+01    0.1256637E+01    0.1256637E+01    0.1256637E+01    0.1256637E+01
  0.1256637E+01    0.1256637E+01    0.1256637E+01    0.1256637E+01    0.1256637E+01    0.1256637E+01    0.1570796E+01    0.1570796E+01    0.1570796E+01    0.1570796E+01
  0.1570796E+01    0.1570796E+01    0.1570796E+01    0.1570796E+01    0.1570796E+01    0.1570796E+01    0.1570796E+01    0.1570796E+01    0.1570796E+01    0.1570796E+01
  0.1570796E+01    0.1570796E+01    0.1570796E+01    0.1570796E+01    0.1570796E+01    0.1570796E+01    0.1570796E+01    0.1884956E+01    0.1884956E+01    0.1884956E+01
  0.1884956E+01    0.1884956E+01    0.1884956E+01    0.1884956E+01    0.1884956E+01    0.1884956E+01    0.1884956E+01    0.1884956E+01    0.1884956E+01    0.1884956E+01
  0.1884956E+01    0.1884956E+01    0.1884956E+01    0.1884956E+01    0.1884956E+01    0.1884956E+01    0.1884956E+01    0.1884956E+01    0.2199115E+01    0.2199115E+01
  0.2199115E+01    0.2199115E+01    0.2199115E+01    0.2199115E+01    0.2199115E+01    0.2199115E+01    0.2199115E+01    0.2199115E+01    0.2199115E+01    0.2199115E+01
  0.2199115E+01    0.2199115E+01    0.2199115E+01    0.2199115E+01    0.2199115E+01    0.2199115E+01    0.2199115E+01    0.2199115E+01    0.2199115E+01    0.2513274E+01
  0.2513274E+01    0.2513274E+01    0.2513274E+01    0.2513274E+01    0.2513274E+01    0.2513274E+01    0.2513274E+01    0.2513274E+01    0.2513274E+01    0.2513274E+01
  0.2513274E+01    0.2513274E+01    0.2513274E+01    0.2513274E+01    0.2513274E+01    0.2513274E+01    0.2513274E+01    0.2513274E+01    0.2513274E+01    0.2513274E+01
  0.2827433E+01    0.2827433E+01    0.2827433E+01    0.2827433E+01    0.2827433E+01    0.2827433E+01    0.2827433E+01    0.2827433E+01    0.2827433E+01    0.2827433E+01
  0.2827433E+01    0.2827433E+01    0.2827433E+01    0.2827433E+01    0.2827433E+01    0.2827433E+01    0.2827433E+01    0.2827433E+01    0.2827433E+01    0.2827433E+01
  0.2827433E+01    0.3141593E+01    0.3141593E+01    0.3141593E+01    0.3141593E+01    0.3141593E+01    0.3141593E+01    0.3141593E+01    0.3141593E+01    0.3141593E+01
  0.3141593E+01    0.3141593E+01    0.3141593E+01    0.3141593E+01    0.3141593E+01    0.3141593E+01    0.3141593E+01    0.3141593E+01    0.3141593E+01    0.3141593E+01
  0.3141593E+01    0.3141593E+01    0.3455752E+01    0.3455752E+01    0.3455752E+01    0.3455752E+01    0.3455752E+01    0.3455752E+01    0.3455752E+01    0.3455752E+01
  0.3455752E+01    0.3455752E+01    0.3455752E+01    0.3455752E+01    0.3455752E+01    0.3455752E+01    0.3455752E+01    0.3455752E+01    0.3455752E+01    0.3455752E+01
  0.3455752E+01    0.3455752E+01    0.3455752E+01    0.3769911E+01    0.3769911E+01    0.3769911E+01    0.3769911E+01    0.3769911E+01    0.3769911E+01    0.3769911E+01
  0.3769911E+01    0.3769911E+01    0.3769911E+01    0.3769911E+01    0.3769911E+01    0.3769911E+01    0.3769911E+01    0.3769911E+01    0.3769911E+01    0.3769911E+01
  0.3769911E+01    0.3769911E+01    0.3769911E+01    0.3769911E+01    0.4084071E+01    0.4084071E+01    0.4084071E+01    0.4084071E+01    0.4084071E+01    0.4084071E+01
  0.4084071E+01    0.4084071E+01    0.4084071E+01    0.4084071E+01    0.4084071E+01    0.4084071E+01    0.4084071E+01    0.4084071E+01    0.4084071E+01    0.4084071E+01
  0.4084071E+01    0.4084071E+01    0.4084071E+01    0.4084071E+01    0.4084071E+01    0.4398230E+01    0.4398230E+01    0.4398230E+01    0.4398230E+01    0.4398230E+01
  0.4398230E+01    0.4398230E+01    0.4398230E+01    0.4398230E+01    0.4398230E+01    0.4398230E+01    0.4398230E+01    0.4398230E+01    0.4398230E+01    0.4398230E+01
  0.4398230E+01    0.4398230E+01    0.4398230E+01    0.4398230E+01    0.4398230E+01    0.4398230E+01    0.4712389E+01    0.4712389E+01    0.4712389E+01    0.4712389E+01
  0.4712389E+01    0.4712389E+01    0.4712389E+01    0.4712389E+01    0.4712389E+01    0.4712389E+01    0.4712389E+01    0.4712389E+01    0.4712389E+01    0.4712389E+01
  0.4712389E+01    0.4712389E+01    0.4712389E+01    0.4712389E+01    0.4712389E+01    0.4712389E+01    0.4712389E+01    0.5026548E+01    0.5026548E+01    0.5026548E+01
  0.5026548E+01    0.5026548E+01    0.5026548E+01    0.5026548E+01    0.5026548E+01    0.5026548E+01    0.5026548E+01    0.5026548E+01    0.5026548E+01    0.5026548E+01
  0.5026548E+01    0.5026548E+01    0.5026548E+01    0.5026548E+01    0.5026548E+01    0.5026548E+01    0.5026548E+01    0.5026548E+01    0.5340708E+01    0.5340708E+01
  0.5340708E+01    0.5340708E+01    0.5340708E+01    0.5340708E+01    0.5340708E+01    0.5340708E+01    0.5340708E+01    0.5340708E+01    0.5340708E+01    0.5340708E+01
  0.5340708E+01    0.5340708E+01    0.5340708E+01    0.5340708E+01    0.5340708E+01    0.5340708E+01    0.5340708E+01    0.5340708E+01    0.5340708E+01    0.5654867E+01
  0.5654867E+01    0.5654867E+01    0.5654867E+01    0.5654867E+01    0.5654867E+01    0.5654867E+01    0.5654867E+01    0.5654867E+01    0.5654867E+01    0.5654867E+01
  0.5654867E+01    0.5654867E+01    0.5654867E+01    0.5654867E+01    0.5654867E+01    0.5654867E+01    0.5654867E+01    0.5654867E+01    0.5654867E+01    0.5654867E+01
  0.5969026E+01    0.5969026E+01    0.5969026E+01    0.5969026E+01    0.5969026E+01    0.5969026E+01    0.5969026E+01    0.5969026E+01    0.5969026E+01    0.5969026E+01
  0.5969026E+01    0.5969026E+01    0.5969026E+01    0.5969026E+01    0.5969026E+01    0.5969026E+01    0.5969026E+01    0.5969026E+01    0.5969026E+01    0.5969026E+01
  0.5969026E+01    0.6283185E+01    0.6283185E+01    0.6283185E+01    0.6283185E+01    0.6283185E+01    0.6283185E+01    0.6283185E+01    0.6283185E+01    0.6283185E+01
  0.6283185E+01    0.6283185E+01    0.6283185E+01    0.6283185E+01    0.6283185E+01    0.6283185E+01    0.6283185E+01    0.6283185E+01    0.6283185E+01    0.6283185E+01
  0.6283185E+01    0.6283185E+01   -0.5238797E-02   -0.4726312E-02   -0.3751157E-02   -0.2408769E-02   -0.8306144E-03    0.8287781E-03    0.2406676E-02    0.3748321E-02
  0.4722215E-02    0.5238129E-02    0.5241373E-02    0.4727281E-02    0.3751085E-02    0.2408548E-02    0.8309422E-03   -0.8280051E-03   -0.2405725E-02   -0.3747776E-02
 -0.4723465E-02   -0.5236550E-02   -0.1519922E-01   -0.1371151E-01   -0.1088159E-01   -0.6986478E-02   -0.2407502E-02    0.2407029E-02    0.6985673E-02    0.1088021E-01
  0.1370986E-01    0.1519933E-01    0.1520105E-01    0.1371298E-01    0.1088239E-01    0.6987002E-02    0.2408177E-02   -0.2406264E-02   -0.6984983E-02   -0.1087981E-01
 -0.1370982E-01   -0.1519759E-01   -0.2367167E-01   -0.2135456E-01   -0.1694699E-01   -0.1088044E-01   -0.3748850E-02    0.3749659E-02    0.1088100E-01    0.1694716E-01
  0.2135473E-01    0.2367269E-01    0.2367342E-01    0.2135617E-01    0.1694815E-01    0.1088124E-01    0.3749559E-02   -0.3749051E-02   -0.1088058E-01   -0.1694684E-01
 -0.2135427E-01   -0.2367133E-01   -0.2982729E-01   -0.2690754E-01   -0.2135371E-01   -0.1370954E-01   -0.4723329E-02    0.4725245E-02    0.1371121E-01    0.2135506E-01
  0.2690879E-01    0.2982876E-01    0.2982889E-01    0.2690898E-01    0.2135475E-01    0.1371020E-01    0.4723860E-02   -0.4724901E-02   -0.1371109E-01   -0.2135492E-01
 -0.2690858E-01   -0.2982826E-01   -0.3306352E-01   -0.2982691E-01   -0.2367044E-01   -0.1519683E-01   -0.5235576E-02    0.5238184E-02    0.1519916E-01    0.2367240E-01
  0.2982855E-01    0.3306494E-01    0.3306474E-01    0.2982784E-01    0.2367101E-01    0.1519710E-01    0.5235723E-02   -0.5238218E-02   -0.1519936E-01   -0.2367261E-01
 -0.2982882E-01   -0.3306524E-01   -0.3306362E-01   -0.2982694E-01   -0.2367040E-01   -0.1519675E-01   -0.5235517E-02    0.5238219E-02    0.1519917E-01    0.2367230E-01
  0.2982830E-01    0.3306450E-01    0.3306405E-01    0.2982706E-01    0.2367028E-01    0.1519642E-01    0.5235119E-02   -0.5238687E-02   -0.1519977E-01   -0.2367296E-01
 -0.2982906E-01   -0.3306556E-01   -0.2982768E-01   -0.2690760E-01   -0.2135356E-01   -0.1370932E-01   -0.4723137E-02    0.4725362E-02    0.1371120E-01    0.2135484E-01
  0.2690816E-01    0.2982740E-01    0.2982688E-01    0.2690673E-01    0.2135260E-01    0.1370826E-01    0.4722162E-02   -0.4726336E-02   -0.1371227E-01   -0.2135589E-01
 -0.2690935E-01   -0.2982893E-01   -0.2367223E-01   -0.2135458E-01   -0.1694669E-01   -0.1088006E-01   -0.3748534E-02    0.3749805E-02    0.1088095E-01    0.1694692E-01
  0.2135394E-01    0.2367057E-01    0.2367011E-01    0.2135260E-01    0.1694482E-01    0.1087834E-01    0.3746979E-02   -0.3751295E-02   -0.1088240E-01   -0.1694831E-01
 -0.2135542E-01   -0.2367215E-01   -0.1519973E-01   -0.1371132E-01   -0.1088101E-01   -0.6985859E-02   -0.2407115E-02    0.2407099E-02    0.6985530E-02    0.1088001E-01
  0.1370939E-01    0.1519670E-01    0.1519631E-01    0.1370835E-01    0.1087844E-01    0.6983544E-02    0.2405034E-02   -0.2408969E-02   -0.6987299E-02   -0.1088166E-01
 -0.1371091E-01   -0.1519820E-01   -0.5239112E-02   -0.4725765E-02   -0.3750197E-02   -0.2407886E-02   -0.8301226E-03    0.8287297E-03    0.2406217E-02    0.3748010E-02
  0.4722855E-02    0.5235197E-02    0.5234963E-02    0.4722281E-02    0.3747161E-02    0.2405141E-02    0.8277251E-03   -0.8308971E-03   -0.2408261E-02   -0.3749768E-02
 -0.4724339E-02   -0.5236386E-02    0.5234592E-02    0.4722461E-02    0.3747710E-02    0.2405778E-02    0.8281113E-03   -0.8308486E-03   -0.2408690E-02   -0.3750882E-02
 -0.4726067E-02   -0.5238795E-02   -0.5238791E-02   -0.4726101E-02   -0.3750935E-02   -0.2408640E-02   -0.8306739E-03    0.8284744E-03    0.2406548E-02    0.3749025E-02
  0.4724509E-02    0.5237795E-02    0.1519594E-01    0.1370845E-01    0.1087877E-01    0.6983925E-02    0.2405188E-02   -0.2409160E-02   -0.6987849E-02   -0.1088272E-01
 -0.1371243E-01   -0.1519998E-01   -0.1519982E-01   -0.1371189E-01   -0.1088182E-01   -0.6986732E-02   -0.2407799E-02    0.2406797E-02    0.6985656E-02    0.1088073E-01
  0.1371081E-01    0.1519871E-01    0.2366996E-01    0.2135262E-01    0.1694493E-01    0.1087834E-01    0.3746746E-02   -0.3751709E-02   -0.1088313E-01   -0.1694937E-01
 -0.2135654E-01   -0.2367338E-01   -0.2367304E-01   -0.2135543E-01   -0.1694761E-01   -0.1088096E-01   -0.3749166E-02    0.3749417E-02    0.1088090E-01    0.1694741E-01
  0.2135485E-01    0.2367193E-01    0.2982700E-01    0.2690652E-01    0.2135223E-01    0.1370778E-01    0.4721451E-02   -0.4727163E-02   -0.1371317E-01   -0.2135691E-01
 -0.2691024E-01   -0.2982953E-01   -0.2982895E-01   -0.2690864E-01   -0.2135447E-01   -0.1370999E-01   -0.4723627E-02    0.4724989E-02    0.1371113E-01    0.2135500E-01
  0.2690839E-01    0.2982793E-01    0.3306376E-01    0.2982624E-01    0.2366918E-01    0.1519523E-01    0.5233791E-02   -0.5240013E-02   -0.1520095E-01   -0.2367405E-01
 -0.2982985E-01   -0.3306574E-01   -0.3306510E-01   -0.2982790E-01   -0.2367095E-01   -0.1519711E-01   -0.5235737E-02    0.5238166E-02    0.1519912E-01    0.2367219E-01
  0.2982805E-01    0.3306376E-01    0.3306367E-01    0.2982610E-01    0.2366901E-01    0.1519503E-01    0.5233640E-02   -0.5240048E-02   -0.1520091E-01   -0.2367388E-01
 -0.2982950E-01   -0.3306537E-01   -0.3306467E-01   -0.2982733E-01   -0.2367048E-01   -0.1519667E-01   -0.5235214E-02    0.5238496E-02    0.1519933E-01    0.2367244E-01
  0.2982799E-01    0.3306354E-01    0.2982667E-01    0.2690604E-01    0.2135168E-01    0.1370724E-01    0.4721061E-02   -0.4727296E-02   -0.1371297E-01   -0.2135634E-01
 -0.2690934E-01   -0.2982835E-01   -0.2982754E-01   -0.2690716E-01   -0.2135300E-01   -0.1370857E-01   -0.4722358E-02    0.4726042E-02    0.1371194E-01    0.2135540E-01
  0.2690826E-01    0.2982719E-01    0.2366972E-01    0.2135201E-01    0.1694411E-01    0.1087755E-01    0.3746175E-02   -0.3751918E-02   -0.1088275E-01   -0.1694842E-01
 -0.2135512E-01   -0.2367141E-01   -0.2367074E-01   -0.2135312E-01   -0.1694524E-01   -0.1087874E-01   -0.3747293E-02    0.3751144E-02    0.1088223E-01    0.1694805E-01
  0.2135498E-01    0.2367126E-01    0.1519591E-01    0.1370797E-01    0.1087791E-01    0.6982938E-02    0.2404441E-02   -0.2409376E-02   -0.6987412E-02   -0.1088157E-01
 -0.1371057E-01   -0.1519742E-01   -0.1519672E-01   -0.1370863E-01   -0.1087884E-01   -0.6984074E-02   -0.2405287E-02    0.2408895E-02    0.6987299E-02    0.1088199E-01
  0.1371120E-01    0.1519822E-01    0.5235314E-02    0.4722243E-02    0.3746845E-02    0.2404705E-02    0.8273018E-03   -0.8310839E-03   -0.2408202E-02   -0.3749779E-02
 -0.4724445E-02   -0.5235693E-02   -0.5234493E-02   -0.4722065E-02   -0.3747395E-02   -0.2405573E-02   -0.8279786E-03    0.8308918E-03    0.2408665E-02    0.3750525E-02
  0.4725125E-02    0.5237483E-02    0.5228836E-02    0.1518943E-01    0.2366186E-01    0.2981624E-01    0.3305007E-01    0.3304693E-01    0.2980708E-01    0.2364835E-01
  0.1517490E-01    0.5223014E-02   -0.5260727E-02   -0.1522272E-01   -0.2369417E-01   -0.2984720E-01   -0.3308063E-01   -0.3307750E-01   -0.2983857E-01   -0.2368091E-01
 -0.1520644E-01   -0.5244207E-02    0.4716283E-02    0.1370176E-01    0.2134449E-01    0.2689608E-01    0.2981308E-01    0.2981002E-01    0.2688741E-01    0.2133182E-01
  0.1368791E-01    0.4704508E-02   -0.4747196E-02   -0.1373390E-01   -0.2137631E-01   -0.2692722E-01   -0.2984394E-01   -0.2984094E-01   -0.2691880E-01   -0.2136350E-01
 -0.1371834E-01   -0.4731597E-02    0.3741292E-02    0.1087199E-01    0.1693685E-01    0.2134211E-01    0.2365651E-01    0.2365360E-01    0.2133388E-01    0.1692468E-01
  0.1085789E-01    0.3727049E-02   -0.3772190E-02   -0.1090344E-01   -0.1696818E-01   -0.2137311E-01   -0.2368737E-01   -0.2368452E-01   -0.2136505E-01   -0.1695594E-01
 -0.1088851E-01   -0.3756714E-02    0.2399270E-02    0.6977106E-02    0.1087035E-01    0.1369787E-01    0.1518291E-01    0.1518016E-01    0.1369001E-01    0.1085849E-01
  0.6962855E-02    0.2384103E-02   -0.2430194E-02   -0.7008120E-02   -0.1090129E-01   -0.1372865E-01   -0.1521360E-01   -0.1521097E-01   -0.1372104E-01   -0.1088961E-01
 -0.6993821E-02   -0.2414873E-02    0.8216070E-03    0.2398390E-02    0.3738779E-02    0.4711615E-02    0.5221685E-02    0.5219066E-02    0.4704103E-02    0.3727297E-02
  0.2384237E-02    0.8062625E-03   -0.8523266E-03   -0.2429051E-02   -0.3769403E-02   -0.4742142E-02   -0.5252222E-02   -0.5249771E-02   -0.4734988E-02   -0.3758351E-02
 -0.2415364E-02   -0.8373096E-03   -0.8372444E-03   -0.2415982E-02   -0.3759776E-02   -0.4737027E-02   -0.5252109E-02   -0.5254576E-02   -0.4744145E-02   -0.3770781E-02
 -0.2429743E-02   -0.8523389E-03    0.8069223E-03    0.2385682E-02    0.3729482E-02    0.4706726E-02    0.5221713E-02    0.5224034E-02    0.4713400E-02    0.3739834E-02
  0.2398744E-02    0.8214477E-03   -0.2415150E-02   -0.6994889E-02   -0.1089143E-01   -0.1372330E-01   -0.1521330E-01   -0.1521558E-01   -0.1372996E-01   -0.1090181E-01
 -0.7007949E-02   -0.2429613E-02    0.2385059E-02    0.6964799E-02    0.1086125E-01    0.1369304E-01    0.1518296E-01    0.1518507E-01    0.1369924E-01    0.1087099E-01
  0.6977116E-02    0.2398974E-02   -0.3757646E-02   -0.1089014E-01   -0.1695812E-01   -0.2136754E-01   -0.2368679E-01   -0.2368891E-01   -0.2137369E-01   -0.1696771E-01
 -0.1090232E-01   -0.3771210E-02    0.3727605E-02    0.1086001E-01    0.1692785E-01    0.2133722E-01    0.2365636E-01    0.2365832E-01    0.2134299E-01    0.1693694E-01
  0.1087158E-01    0.3740780E-02   -0.4733314E-02   -0.1372044E-01   -0.2136594E-01   -0.2692140E-01   -0.2984312E-01   -0.2984506E-01   -0.2692704E-01   -0.2137474E-01
 -0.1373161E-01   -0.4745791E-02    0.4703070E-02    0.1369007E-01    0.2133552E-01    0.2689095E-01    0.2981256E-01    0.2981443E-01    0.2689632E-01    0.2134394E-01
  0.1370096E-01    0.4715414E-02   -0.5246806E-02   -0.1520878E-01   -0.2368347E-01   -0.2984138E-01   -0.3307972E-01   -0.3308149E-01   -0.2984657E-01   -0.2369157E-01
 -0.1521895E-01   -0.5258121E-02    0.5215922E-02    0.1517794E-01    0.2365267E-01    0.2981059E-01    0.3304896E-01    0.3305066E-01    0.2981563E-01    0.2366064E-01
  0.1518809E-01    0.5227431E-02   -0.5247546E-02   -0.1520930E-01   -0.2368380E-01   -0.2984152E-01   -0.3307970E-01   -0.3308140E-01   -0.2984641E-01   -0.2369135E-01
 -0.1521878E-01   -0.5258003E-02    0.5216020E-02    0.1517790E-01    0.2365254E-01    0.2981044E-01    0.3304866E-01    0.3305030E-01    0.2981529E-01    0.2366016E-01
  0.1518751E-01    0.5226782E-02   -0.4735249E-02   -0.1372182E-01   -0.2136672E-01   -0.2692169E-01   -0.2984301E-01   -0.2984468E-01   -0.2692649E-01   -0.2137413E-01
 -0.1373106E-01   -0.4745359E-02    0.4703293E-02    0.1369004E-01    0.2133525E-01    0.2689041E-01    0.2981179E-01    0.2981349E-01    0.2689521E-01    0.2134266E-01
  0.1369950E-01    0.4713649E-02   -0.3760288E-02   -0.1089203E-01   -0.1695916E-01   -0.2136788E-01   -0.2368659E-01   -0.2368828E-01   -0.2137282E-01   -0.1696680E-01
 -0.1090145E-01   -0.3770573E-02    0.3727883E-02    0.1085998E-01    0.1692742E-01    0.2133634E-01    0.2365523E-01    0.2365691E-01    0.2134128E-01    0.1693514E-01
  0.1086956E-01    0.3738402E-02   -0.2417810E-02   -0.6996770E-02   -0.1089249E-01   -0.1372362E-01   -0.1521298E-01   -0.1521484E-01   -0.1372895E-01   -0.1090071E-01
 -0.7007034E-02   -0.2428993E-02    0.2385369E-02    0.6964642E-02    0.1086062E-01    0.1369203E-01    0.1518149E-01    0.1518327E-01    0.1369732E-01    0.1086885E-01
  0.6974812E-02    0.2396571E-02   -0.8390860E-03   -0.2417287E-02   -0.3760449E-02   -0.4737070E-02   -0.5251606E-02   -0.5253672E-02   -0.4743015E-02   -0.3769684E-02
 -0.2428892E-02   -0.8518057E-03    0.8070787E-03    0.2385432E-02    0.3728837E-02    0.4705591E-02    0.5220133E-02    0.5222213E-02    0.4711386E-02    0.3737746E-02
  0.2396762E-02    0.8194617E-03    0.8207955E-03    0.2397806E-02    0.3738557E-02    0.4711792E-02    0.5222241E-02    0.5219961E-02    0.4705108E-02    0.3728134E-02
  0.2384742E-02    0.8063167E-03   -0.8525566E-03   -0.2429411E-02   -0.3770094E-02   -0.4743313E-02   -0.5253686E-02   -0.5251510E-02   -0.4736890E-02   -0.3760012E-02
 -0.2416794E-02   -0.8385043E-03    0.2399443E-02    0.6977243E-02    0.1087049E-01    0.1369813E-01    0.1518339E-01    0.1518081E-01    0.1369066E-01    0.1085889E-01
  0.6962583E-02    0.2383185E-02   -0.2430919E-02   -0.7008702E-02   -0.1090200E-01   -0.1372960E-01   -0.1521496E-01   -0.1521257E-01   -0.1372249E-01   -0.1089084E-01
 -0.6994650E-02   -0.2415038E-02    0.3742479E-02    0.1087285E-01    0.1693739E-01    0.2134247E-01    0.2365684E-01    0.2365397E-01    0.2133420E-01    0.1692456E-01
  0.1085668E-01    0.3724577E-02   -0.3773635E-02   -0.1090404E-01   -0.1696856E-01   -0.2137384E-01   -0.2368850E-01   -0.2368573E-01   -0.2136617E-01   -0.1695663E-01
 -0.1088850E-01   -0.3756241E-02    0.4717845E-02    0.1370297E-01    0.2134513E-01    0.2689616E-01    0.2981287E-01    0.2980979E-01    0.2688720E-01    0.2133125E-01
  0.1368570E-01    0.4698664E-02   -0.4749291E-02   -0.1373402E-01   -0.2137619E-01   -0.2692768E-01   -0.2984476E-01   -0.2984198E-01   -0.2691969E-01   -0.2136345E-01
 -0.1371766E-01   -0.4730737E-02    0.5230693E-02    0.1519098E-01    0.2366246E-01    0.2981576E-01    0.3304905E-01    0.3304573E-01    0.2980625E-01    0.2364786E-01
  0.1517273E-01    0.5209561E-02   -0.5262053E-02   -0.1522171E-01   -0.2369319E-01   -0.2984719E-01   -0.3308152E-01   -0.3307857E-01   -0.2983916E-01   -0.2368036E-01
 -0.1520494E-01   -0.5242702E-02   -0.1099501E-02   -0.1025256E-02   -0.9168428E-03   -0.8539195E-03   -0.7306790E-03   -0.6688902E-03   -0.7147160E-03   -0.6822060E-03
 -0.6571626E-03   -0.5618001E-03   -0.5906783E-03   -0.5755244E-03   -0.6983813E-03   -0.5063473E-03   -0.4418565E-03   -0.6930772E-03   -0.5970900E-03   -0.6393549E-03
 -0.1066542E-02   -0.9613379E-03   -0.9987480E-03   -0.9164052E-03   -0.8106304E-03   -0.7257550E-03   -0.6203529E-03   -0.5755707E-03   -0.6032637E-03   -0.5984404E-03
 -0.6196203E-03   -0.6558782E-03   -0.5750141E-03   -0.5368585E-03   -0.6155219E-03   -0.4527472E-03   -0.4017739E-03   -0.6030438E-03   -0.5552226E-03   -0.6196664E-03
 -0.9685662E-03   -0.9218782E-03   -0.8924689E-03   -0.8065671E-03   -0.6737482E-03   -0.5883552E-03   -0.5101875E-03   -0.4450088E-03   -0.4863406E-03   -0.5171773E-03
 -0.5287718E-03   -0.6194007E-03   -0.5583957E-03   -0.4579159E-03   -0.5180307E-03   -0.4088164E-03   -0.3006837E-03   -0.4895109E-03   -0.5208479E-03   -0.5144779E-03
 -0.8464427E-03   -0.9086013E-03   -0.8498736E-03   -0.7426042E-03   -0.6102136E-03   -0.5379209E-03   -0.4310532E-03   -0.3738516E-03   -0.4454157E-03   -0.4414412E-03
 -0.4727264E-03   -0.6120226E-03   -0.5125141E-03   -0.4092947E-03   -0.4899015E-03   -0.3300234E-03   -0.2277110E-03   -0.4528971E-03   -0.4237602E-03   -0.4311601E-03