 TITLE = "NAVIER-STOKES OUTPUT"
 VARIABLES = "X", "Y", "U", "V", "P", "Pex", "Vor"
 ZONE I =   21, J =   21, DATAPACKING = BLOCK, VARLOCATION=(3=CELLCENTERED, 4=CELLCENTERED,5=CELLCENTERED,6=CELLCENTERED, 7=CELLCENTERED)
  0.0000000E+00    0.3141593E+00    0.6283185E+00    0.9424778E+00    0.1256637E+01    0.1570796E+01    0.1884956E+01    0.2199115E+01    0.2513274E+01    0.2827433E+01
  0.3141593E+01    0.3455752E+01    0.3769911E+01    0.4084071E+01    0.4398230E+01    0.4712389E+01    0.5026548E+01    0.5340708E+01    0.5654867E+01    0.5969026E+01
  0.6283185E+01    0.0000000E+00    0.3141593E+00    0.6283185E+00    0.9424778E+00    0.1256637E+01    0.1570796E+01    0.1884956E+01    0.2199115E+01    0.2513274E+01
  0.2827433E+01    0.3141593E+01    0.3455752E+01    0.3769911E+01    0.4084071E+01    0.4398230E+01    0.4712389E+01    0.5026548E+01    0.5340708E+01    0.5654867E+01
  0.5969026E+01    0.6283185E+01    0.0000000E+00    0.3141593E+00    0.6283185E+00    0.9424778E+00    0.1256637E+01    0.1570796E+01    0.1884956E+01    0.2199115E+01
  0.2513274E+01    0.2827433E+01    0.3141593E+01    0.3455752E+01    0.3769911E+01    0.4084071E+01    0.4398230E+01    0.4712389E+01    0.5026548E+01    0.5340708E+01
  0.5654867E+01    0.5969026E+01    0.6283185E+01    0.0000000E+00    0.3141593E+00    0.6283185E+00    0.9424778E+00    0.1256637E+01    0.1570796E+01    0.1884956E+01
  0.2199115E+01    0.2513274E+01    0.2827433E+01    0.3141593E+01    0.3455752E+01    0.3769911E+01    0.4084071E+01    0.4398230E+01    0.4712389E+01    0.5026548E+01
  0.5340708E+01    0.5654867E+01    0.5969026E+01    0.6283185E+01    0.0000000E+00    0.3141593E+00    0.6283185E+00    0.9424778E+00    0.1256637E+01    0.1570796E+01
  0.1884956E+01    0.2199115E+01    0.2513274E+01    0.2827433E+01    0.3141593E+01    0.3455752E+01    0.3769911E+01    0.4084071E+01    0.4398230E+01    0.4712389E+01
  0.5026548E+01    0.5340708E+01    0.5654867E+01    0.5969026E+01    0.6283185E+01    0.0000000E+00    0.3141593E+00    0.6283185E+00    0.9424778E+00    0.1256637E+01
  0.1570796E+01    0.1884956E+01    0.2199115E+01    0.2513274E+01    0.2827433E+01    0.3141593E+01    0.3455752E+01    0.3769911E+01    0.4084071E+01    0.4398230E+01
  0.4712389E+01    0.5026548E+01    0.5340708E+01    0.5654867E+01    0.5969026E+01    0.6283185E+01    0.0000000E+00    0.3141593E+00    0.6283185E+00    0.9424778E+00
  0.1256637E+01    0.1570796E+01    0.1884956E+01    0.2199115E+01    0.2513274E+01    0.2827433E+01    0.3141593E+01    0.3455752E+01    0.3769911E+01    0.4084071E+01
  0.4398230E+01    0.4712389E+01    0.5026548E+01    0.5340708E+01    0.5654867E+01    0.5969026E+01    0.6283185E+01    0.0000000E+00    0.3141593E+00    0.6283185E+00
  0.9424778E+00    0.1256637E+01    0.1570796E+01    0.1884956E+01    0.2199115E+01    0.2513274E+01    0.2827433E+01    0.3141593E+01    0.3455752E+01    0.3769911E+01
  0.4084071E+01    0.4398230E+01    0.4712389E+01    0.5026548E+01    0.5340708E+01    0.5654867E+01    0.5969026E+01    0.6283185E+01    0.0000000E+00    0.3141593E+00
  0.6283185E+00    0.9424778E+00    0.1256637E+01    0.1570796E+01    0.1884956E+01    0.2199115E+01    0.2513274E+01    0.2827433E+01    0.3141593E+01    0.3455752E+01
  0.3769911E+01    0.4084071E+01    0.4398230E+01    0.4712389E+01    0.5026548E+01    0.5340708E+01    0.5654867E+01    0.5969026E+01    0.6283185E+01    0.0000000E+00
  0.3141593E+00    0.6283185E+00    0.9424778E+00    0.1256637E+01    0.1570796E+01    0.1884956E+01    0.2199115E+01    0.2513274E+01    0.2827433E+01    0.3141593E+01
  0.3455752E+01    0.3769911E+01    0.4084071E+01    0.4398230E+01    0.4712389E+01    0.5026548E+01    0.5340708E+01    0.5654867E+01    0.5969026E+01    0.6283185E+01
  0.0000000E+00    0.3141593E+00    0.6283185E+00    0.9424778E+00    0.1256637E+01    0.1570796E+01    0.1884956E+01    0.2199115E+01    0.2513274E+01    0.2827433E+01
  0.3141593E+01    0.3455752E+01    0.3769911E+01    0.4084071E+01    0.4398230E+01    0.4712389E+01    0.5026548E+01    0.5340708E+01    0.5654867E+01    0.5969026E+01
  0.6283185E+01    0.0000000E+00    0.3141593E+00    0.6283185E+00    0.9424778E+00    0.1256637E+01    0.1570796E+01    0.1884956E+01    0.2199115E+01    0.2513274E+01
  0.2827433E+01    0.3141593E+01    0.3455752E+01    0.3769911E+01    0.4084071E+01    0.4398230E+01    0.4712389E+01    0.5026548E+01    0.5340708E+01    0.5654867E+01
  0.5969026E+01    0.6283185E+01    0.0000000E+00    0.3141593E+00    0.6283185E+00    0.9424778E+00    0.1256637E+01    0.1570796E+01    0.1884956E+01    0.2199115E+01
  0.2513274E+01    0.2827433E+01    0.3141593E+01    0.3455752E+01    0.3769911E+01    0.4084071E+01    0.4398230E+01    0.4712389E+01    0.5026548E+01    0.5340708E+01
  0.5654867E+01    0.5969026E+01    0.6283185E+01    0.0000000E+00    0.3141593E+00    0.6283185E+00    0.9424778E+00    0.1256637E+01    0.1570796E+01    0.1884956E+01
  0.2199115E+01    0.2513274E+01    0.2827433E+01    0.3141593E+01    0.3455752E+01    0.3769911E+01    0.4084071E+01    0.4398230E+01    0.4712389E+01    0.5026548E+01
  0.5340708E+01    0.5654867E+01    0.5969026E+01    0.6283185E+01    0.0000000E+00    0.3141593E+00    0.6283185E+00    0.9424778E+00    0.1256637E+01    0.1570796E+01
  0.1884956E+01    0.2199115E+01    0.2513274E+01    0.2827433E+01    0.3141593E+01    0.3455752E+01    0.3769911E+01    0.4084071E+01    0.4398230E+01    0.4712389E+01
  0.5026548E+01    0.5340708E+01    0.5654867E+01    0.5969026E+01    0.6283185E+01    0.0000000E+00    0.3141593E+00    0.6283185E+00    0.9424778E+00    0.1256637E+01
  0.1570796E+01    0.1884956E+01    0.2199115E+01    0.2513274E+01    0.2827433E+01    0.3141593E+01    0.3455752E+01    0.3769911E+01    0.4084071E+01    0.4398230E+01
  0.4712389E+01    0.5026548E+01    0.5340708E+01    0.5654867E+01    0.5969026E+01    0.6283185E+01    0.0000000E+00    0.3141593E+00    0.6283185E+00    0.9424778E+00
  0.1256637E+01    0.1570796E+01    0.1884956E+01    0.2199115E+01    0.2513274E+01    0.2827433E+01    0.3141593E+01    0.3455752E+01    0.3769911E+01    0.4084071E+01
  0.4398230E+01    0.4712389E+01    0.5026548E+01    0.5340708E+01    0.5654867E+01    0.5969026E+01    0.6283185E+01    0.0000000E+00    0.3141593E+00    0.6283185E+00
  0.9424778E+00    0.1256637E+01    0.1570796E+01    0.1884956E+01    0.2199115E+01    0.2513274E+01    0.2827433E+01    0.3141593E+01    0.3455752E+01    0.3769911E+01
  0.4084071E+01    0.4398230E+01    0.4712389E+01    0.5026548E+01    0.5340708E+01    0.5654867E+01    0.5969026E+01    0.6283185E+01    0.0000000E+00    0.3141593E+00
  0.6283185E+00    0.9424778E+00    0.1256637E+01    0.1570796E+01    0.1884956E+01    0.2199115E+01    0.2513274E+01    0.2827433E+01    0.3141593E+01    0.3455752E+01
  0.3769911E+01    0.4084071E+01    0.4398230E+01    0.4712389E+01    0.5026548E+01    0.5340708E+01    0.5654867E+01    0.5969026E+01    0.6283185E+01    0.0000000E+00
  0.3141593E+00    0.6283185E+00    0.9424778E+00    0.1256637E+01    0.1570796E+01    0.1884956E+01    0.2199115E+01    0.2513274E+01    0.2827433E+01    0.3141593E+01
  0.3455752E+01    0.3769911E+01    0.4084071E+01    0.4398230E+01    0.4712389E+01    0.5026548E+01    0.5340708E+01    0.5654867E+01    0.5969026E+01    0.6283185E+01
  0.0000000E+00    0.3141593E+00    0.6283185E+00    0.9424778E+00    0.1256637E+01    0.1570796E+01    0.1884956E+01    0.2199115E+01    0.2513274E+01    0.2827433E+01
  0.3141593E+01    0.3455752E+01    0.3769911E+01    0.4084071E+01    0.4398230E+01    0.4712389E+01    0.5026548E+01    0.5340708E+01    0.5654867E+01    0.5969026E+01
  0.6283185E+01    0.0000000E+00    0.0000000E+00    0.0000000E+00    0.0000000E+00    0.0000000E+00    0.0000000E+00    0.0000000E+00    0.0000000E+00    0.0000000E+00
  0.0000000E+00    0.0000000E+00    0.0000000E+00    0.0000000E+00    0.0000000E+00    0.0000000E+00    0.0000000E+00    0.0000000E+00    0.0000000E+00    0.0000000E+00
  0.0000000E+00    0.0000000E+00    0.3141593E+00    0.3141593E+00    0.3141593E+00    0.3141593E+00    0.3141593E+00    0.3141593E+00    0.3141593E+00    0.3141593E+00
  0.3141593E+00    0.3141593E+00    0.3141593E+00    0.3141593E+00    0.3141593E+00    0.3141593E+00    0.3141593E+00    0.3141593E+00    0.3141593E+00    0.3141593E+00
  0.3141593E+00    0.3141593E+00    0.3141593E+00    0.6283185E+00    0.6283185E+00    0.6283185E+00    0.6283185E+00    0.6283185E+00    0.6283185E+00    0.6283185E+00
  0.6283185E+00    0.6283185E+00    0.6283185E+00    0.6283185E+00    0.6283185E+00    0.6283185E+00    0.6283185E+00    0.6283185E+00    0.6283185E+00    0.6283185E+00
  0.6283185E+00    0.6283185E+00    0.6283185E+00    0.6283185E+00    0.9424778E+00    0.9424778E+00    0.9424778E+00    0.9424778E+00    0.9424778E+00    0.9424778E+00
  0.9424778E+00    0.9424778E+00    0.9424778E+00    0.9424778E+00    0.9424778E+00    0.9424778E+00    0.9424778E+00    0.9424778E+00    0.9424778E+00    0.9424778E+00
  0.9424778E+00    0.9424778E+00    0.9424778E+00    0.9424778E+00    0.9424778E+00    0.1256637E+01    0.1256637E+01    0.1256637E+01    0.1256637E+01    0.1256637E+01
  0.1256637E+01    0.1256637E+01    0.1256637E+01    0.1256637E+01    0.1256637E+01    0.1256637E+01    0.1256637E+01    0.1256637E+01    0.1256637E+01    0.1256637E+01
  0.1256637E+01    0.1256637E+01    0.1256637E+01    0.1256637E+01    0.1256637E+01    0.1256637E+01    0.1570796E+01    0.1570796E+01    0.1570796E+01    0.1570796E+01
  0.1570796E+01    0.1570796E+01    0.1570796E+01    0.1570796E+01    0.1570796E+01    0.1570796E+01    0.1570796E+01    0.1570796E+01    0.1570796E+01    0.1570796E+01
  0.1570796E+01    0.1570796E+01    0.1570796E+01    0.1570796E+01    0.1570796E+01    0.1570796E+01    0.1570796E+01    0.1884956E+01    0.1884956E+01    0.1884956E+01
  0.1884956E+01    0.1884956E+01    0.1884956E+01    0.1884956E+01    0.1884956E+01    0.1884956E+01    0.1884956E+01    0.1884956E+01    0.1884956E+01    0.1884956E+01
  0.1884956E+01    0.1884956E+01    0.1884956E+01    0.1884956E+01    0.1884956E+01    0.1884956E+01    0.1884956E+01    0.1884956E+01    0.2199115E+01    0.2199115E+01
  0.2199115E+01    0.2199115E+01    0.2199115E+01    0.2199115E+01    0.2199115E+01    0.2199115E+01    0.2199115E+01    0.2199115E+01    0.2199115E+01    0.2199115E+01
  0.2199115E+01    0.2199115E+01    0.2199115E+01    0.2199115E+01    0.2199115E+01    0.2199115E+01    0.2199115E+01    0.2199115E+01    0.2199115E+01    0.2513274E+01
  0.2513274E+01    0.2513274E+01    0.2513274E+01    0.2513274E+01    0.2513274E+01    0.2513274E+01    0.2513274E+01    0.2513274E+01    0.2513274E+01    0.2513274E+01
  0.2513274E+01    0.2513274E+01    0.2513274E+01    0.2513274E+01    0.2513274E+01    0.2513274E+01    0.2513274E+01    0.2513274E+01    0.2513274E+01    0.2513274E+01
  0.2827433E+01    0.2827433E+01    0.2827433E+01    0.2827433E+01    0.2827433E+01    0.2827433E+01    0.2827433E+01    0.2827433E+01    0.2827433E+01    0.2827433E+01
  0.2827433E+01    0.2827433E+01    0.2827433E+01    0.2827433E+01    0.2827433E+01    0.2827433E+01    0.2827433E+01    0.2827433E+01    0.2827433E+01    0.2827433E+01
  0.2827433E+01    0.3141593E+01    0.3141593E+01    0.3141593E+01    0.3141593E+01    0.3141593E+01    0.3141593E+01    0.3141593E+01    0.3141593E+01    0.3141593E+01
  0.3141593E+01    0.3141593E+01    0.3141593E+01    0.3141593E+01    0.3141593E+01    0.3141593E+01    0.3141593E+01    0.3141593E+01    0.3141593E+01    0.3141593E+01
  0.3141593E+01    0.3141593E+01    0.3455752E+01    0.3455752E+01    0.3455752E+01    0.3455752E+01    0.3455752E+01    0.3455752E+01    0.3455752E+01    0.3455752E+01
  0.3455752E+01    0.3455752E+01    0.3455752E+01    0.3455752E+01    0.3455752E+01    0.3455752E+01    0.3455752E+01    0.3455752E+01    0.3455752E+01    0.3455752E+01
  0.3455752E+01    0.3455752E+01    0.3455752E+01    0.3769911E+01    0.3769911E+01    0.3769911E+01    0.3769911E+01    0.3769911E+01    0.3769911E+01    0.3769911E+01
  0.3769911E+01    0.3769911E+01    0.3769911E+01    0.3769911E+01    0.3769911E+01    0.3769911E+01    0.3769911E+01    0.3769911E+01    0.3769911E+01    0.3769911E+01
  0.3769911E+01    0.3769911E+01    0.3769911E+01    0.3769911E+01    0.4084071E+01    0.4084071E+01    0.4084071E+01    0.4084071E+01    0.4084071E+01    0.4084071E+01
  0.4084071E+01    0.4084071E+01    0.4084071E+01    0.4084071E+01    0.4084071E+01    0.4084071E+01    0.4084071E+01    0.4084071E+01    0.4084071E+01    0.4084071E+01
  0.4084071E+01    0.4084071E+01    0.4084071E+01    0.4084071E+01    0.4084071E+01    0.4398230E+01    0.4398230E+01    0.4398230E+01    0.4398230E+01    0.4398230E+01
  0.4398230E+01    0.4398230E+01    0.4398230E+01    0.4398230E+01    0.4398230E+01    0.4398230E+01    0.4398230E+01    0.4398230E+01    0.4398230E+01    0.4398230E+01
  0.4398230E+01    0.4398230E+01    0.4398230E+01    0.4398230E+01    0.4398230E+01    0.4398230E+01    0.4712389E+01    0.4712389E+01    0.4712389E+01    0.4712389E+01
  0.4712389E+01    0.4712389E+01    0.4712389E+01    0.4712389E+01    0.4712389E+01    0.4712389E+01    0.4712389E+01    0.4712389E+01    0.4712389E+01    0.4712389E+01
  0.4712389E+01    0.4712389E+01    0.4712389E+01    0.4712389E+01    0.4712389E+01    0.4712389E+01    0.4712389E+01    0.5026548E+01    0.5026548E+01    0.5026548E+01
  0.5026548E+01    0.5026548E+01    0.5026548E+01    0.5026548E+01    0.5026548E+01    0.5026548E+01    0.5026548E+01    0.5026548E+01    0.5026548E+01    0.5026548E+01
  0.5026548E+01    0.5026548E+01    0.5026548E+01    0.5026548E+01    0.5026548E+01    0.5026548E+01    0.5026548E+01    0.5026548E+01    0.5340708E+01    0.5340708E+01
  0.5340708E+01    0.5340708E+01    0.5340708E+01    0.5340708E+01    0.5340708E+01    0.5340708E+01    0.5340708E+01    0.5340708E+01    0.5340708E+01    0.5340708E+01
  0.5340708E+01    0.5340708E+01    0.5340708E+01    0.5340708E+01    0.5340708E+01    0.5340708E+01    0.5340708E+01    0.5340708E+01    0.5340708E+01    0.5654867E+01
  0.5654867E+01    0.5654867E+01    0.5654867E+01    0.5654867E+01    0.5654867E+01    0.5654867E+01    0.5654867E+01    0.5654867E+01    0.5654867E+01    0.5654867E+01
  0.5654867E+01    0.5654867E+01    0.5654867E+01    0.5654867E+01    0.5654867E+01    0.5654867E+01    0.5654867E+01    0.5654867E+01    0.5654867E+01    0.5654867E+01
  0.5969026E+01    0.5969026E+01    0.5969026E+01    0.5969026E+01    0.5969026E+01    0.5969026E+01    0.5969026E+01    0.5969026E+01    0.5969026E+01    0.5969026E+01
  0.5969026E+01    0.5969026E+01    0.5969026E+01    0.5969026E+01    0.5969026E+01    0.5969026E+01    0.5969026E+01    0.5969026E+01    0.5969026E+01    0.5969026E+01
  0.5969026E+01    0.6283185E+01    0.6283185E+01    0.6283185E+01    0.6283185E+01    0.6283185E+01    0.6283185E+01    0.6283185E+01    0.6283185E+01    0.6283185E+01
  0.6283185E+01    0.6283185E+01    0.6283185E+01    0.6283185E+01    0.6283185E+01    0.6283185E+01    0.6283185E+01    0.6283185E+01    0.6283185E+01    0.6283185E+01
  0.6283185E+01    0.6283185E+01   -0.7053588E-02   -0.6363609E-02   -0.5050890E-02   -0.3243989E-02   -0.1119719E-02    0.1113813E-02    0.3237579E-02    0.5043371E-02
  0.6353988E-02    0.7052301E-02    0.7060559E-02    0.6367782E-02    0.5052982E-02    0.3245227E-02    0.1120147E-02   -0.1114313E-02   -0.3238686E-02   -0.5046230E-02
 -0.6359789E-02   -0.7049716E-02   -0.2046628E-01   -0.1846314E-01   -0.1465280E-01   -0.9408301E-02   -0.3243045E-02    0.3239294E-02    0.9403996E-02    0.1464769E-01
  0.1845799E-01    0.2046571E-01    0.2047026E-01    0.1846671E-01    0.1465506E-01    0.9409691E-02    0.3243588E-02   -0.3239559E-02   -0.9404914E-02   -0.1464973E-01
 -0.1846031E-01   -0.2046317E-01   -0.3187585E-01   -0.2875554E-01   -0.2282054E-01   -0.1465183E-01   -0.5049050E-02    0.5047703E-02    0.1465004E-01    0.2281824E-01
  0.2875339E-01    0.3187563E-01    0.3187778E-01    0.2875776E-01    0.2282217E-01    0.1465292E-01    0.5049552E-02   -0.5047752E-02   -0.1465046E-01   -0.2281910E-01
 -0.2875394E-01   -0.3187381E-01   -0.4016529E-01   -0.3623325E-01   -0.2875460E-01   -0.1846133E-01   -0.6361016E-02    0.6361773E-02    0.1846170E-01    0.2875450E-01
  0.3623289E-01    0.4016522E-01    0.4016600E-01    0.3623429E-01    0.2875542E-01    0.1846193E-01    0.6361288E-02   -0.6361768E-02   -0.1846174E-01   -0.2875462E-01
 -0.3623264E-01   -0.4016366E-01   -0.4452294E-01   -0.4016437E-01   -0.3187420E-01   -0.2046396E-01   -0.7050629E-02    0.7052757E-02    0.2046571E-01    0.3187535E-01
  0.4016489E-01    0.4452308E-01    0.4452305E-01    0.4016448E-01    0.3187422E-01    0.2046394E-01    0.7050496E-02   -0.7052902E-02   -0.2046575E-01   -0.3187532E-01
 -0.4016458E-01   -0.4452215E-01   -0.4452320E-01   -0.4016435E-01   -0.3187402E-01   -0.2046374E-01   -0.7050376E-02    0.7053025E-02    0.2046594E-01    0.3187549E-01
  0.4016482E-01    0.4452258E-01    0.4452217E-01    0.4016347E-01    0.3187320E-01    0.2046302E-01    0.7049746E-02   -0.7053560E-02   -0.2046627E-01   -0.3187566E-01
 -0.4016488E-01   -0.4452240E-01   -0.4016515E-01   -0.3623285E-01   -0.2875400E-01   -0.1846060E-01   -0.6360218E-02    0.6362584E-02    0.1846249E-01    0.2875512E-01
  0.3623284E-01    0.4016383E-01    0.4016332E-01    0.3623115E-01    0.2875240E-01    0.1845923E-01    0.6359009E-02   -0.6363634E-02   -0.1846324E-01   -0.2875569E-01
 -0.3623326E-01   -0.4016384E-01   -0.3187546E-01   -0.2875480E-01   -0.2281951E-01   -0.1465058E-01   -0.5047704E-02    0.5049121E-02    0.1465160E-01    0.2281975E-01
  0.2875399E-01    0.3187354E-01    0.3187300E-01    0.2875238E-01    0.2281727E-01    0.1464859E-01    0.5045909E-02   -0.5050672E-02   -0.1465290E-01   -0.2282091E-01
 -0.2875500E-01   -0.3187439E-01   -0.2046634E-01   -0.1846238E-01   -0.1465148E-01   -0.9406657E-02   -0.3241228E-02    0.3241281E-02    0.9406325E-02    0.1465049E-01
  0.1846041E-01    0.2046315E-01    0.2046275E-01    0.1845921E-01    0.1464862E-01    0.9404118E-02    0.3238980E-02   -0.3243329E-02   -0.9408156E-02   -0.1465214E-01
 -0.1846202E-01   -0.2046468E-01   -0.7053344E-02   -0.6362564E-02   -0.5049301E-02   -0.3242010E-02   -0.1117565E-02    0.1116011E-02    0.3240190E-02    0.5047079E-02
  0.6359684E-02    0.7049651E-02    0.7049495E-02    0.6359068E-02    0.5046106E-02    0.3239187E-02    0.1114968E-02   -0.1118444E-02   -0.3242348E-02   -0.5049083E-02
 -0.6361536E-02   -0.7051069E-02    0.7050391E-02    0.6360088E-02    0.5047092E-02    0.3239898E-02    0.1115340E-02   -0.1118606E-02   -0.3243204E-02   -0.5050529E-02
 -0.6363649E-02   -0.7053942E-02   -0.7053907E-02   -0.6363532E-02   -0.5050303E-02   -0.3242873E-02   -0.1118147E-02    0.1116002E-02    0.3240759E-02    0.5048167E-02
  0.6361459E-02    0.7051983E-02    0.2046297E-01    0.1845971E-01    0.1464922E-01    0.9404466E-02    0.3238938E-02   -0.3243847E-02   -0.9409316E-02   -0.1465386E-01
 -0.1846412E-01   -0.2046717E-01   -0.2046684E-01   -0.1846319E-01   -0.1465243E-01   -0.9407456E-02   -0.3241715E-02    0.3241145E-02    0.9406696E-02    0.1465136E-01
  0.1846158E-01    0.2046453E-01    0.3187301E-01    0.2875256E-01    0.2281731E-01    0.1464835E-01    0.5045344E-02   -0.5051770E-02   -0.1465451E-01   -0.2282286E-01
 -0.2875737E-01   -0.3187700E-01   -0.3187633E-01   -0.2875563E-01   -0.2282023E-01   -0.1465105E-01   -0.5048003E-02    0.5049118E-02    0.1465202E-01    0.2282045E-01
  0.2875509E-01    0.3187522E-01    0.4016347E-01    0.3623084E-01    0.2875173E-01    0.1845815E-01    0.6357624E-02   -0.6365383E-02   -0.1846540E-01   -0.2875805E-01
 -0.3623577E-01   -0.4016652E-01   -0.4016567E-01   -0.3623325E-01   -0.2875412E-01   -0.1846056E-01   -0.6360065E-02    0.6362995E-02    0.1846301E-01    0.2875567E-01
  0.3623356E-01    0.4016446E-01    0.4452070E-01    0.4016182E-01    0.3187135E-01    0.2046084E-01    0.7047338E-02   -0.7056139E-02   -0.2046906E-01   -0.3187838E-01
 -0.4016727E-01   -0.4452446E-01   -0.4452333E-01   -0.4016403E-01   -0.3187343E-01   -0.2046290E-01   -0.7049376E-02    0.7053980E-02    0.2046685E-01    0.3187627E-01
  0.4016512E-01    0.4452215E-01    0.4452110E-01    0.4016183E-01    0.3187110E-01    0.2046050E-01    0.7046994E-02   -0.7056478E-02   -0.2046927E-01   -0.3187840E-01
 -0.4016717E-01   -0.4452410E-01   -0.4452269E-01   -0.4016334E-01   -0.3187262E-01   -0.2046200E-01   -0.7048668E-02    0.7054638E-02    0.2046752E-01    0.3187671E-01
  0.4016573E-01    0.4452336E-01    0.4016319E-01    0.3623020E-01    0.2875082E-01    0.1845709E-01    0.6356546E-02   -0.6366330E-02   -0.1846606E-01   -0.2875828E-01
 -0.3623539E-01   -0.4016545E-01   -0.4016398E-01   -0.3623109E-01   -0.2875172E-01   -0.1845817E-01   -0.6357833E-02    0.6364956E-02    0.1846456E-01    0.2875679E-01
  0.3623424E-01    0.4016456E-01    0.3187213E-01    0.2875131E-01    0.2281582E-01    0.1464668E-01    0.5043631E-02   -0.5053243E-02   -0.1465560E-01   -0.2282334E-01
 -0.2875684E-01   -0.3187536E-01   -0.3187366E-01   -0.2875207E-01   -0.2281640E-01   -0.1464737E-01   -0.5044401E-02    0.5052165E-02    0.1465433E-01    0.2282230E-01
  0.2875592E-01    0.3187452E-01    0.2046284E-01    0.1845870E-01    0.1464752E-01    0.9402460E-02    0.3236869E-02   -0.3245761E-02   -0.9410819E-02   -0.1465468E-01
 -0.1846388E-01   -0.2046508E-01   -0.2046294E-01   -0.1845841E-01   -0.1464739E-01   -0.9402559E-02   -0.3237239E-02    0.3245017E-02    0.9409917E-02    0.1465396E-01
  0.1846372E-01    0.2046650E-01    0.7050762E-02    0.6359090E-02    0.5045298E-02    0.3237782E-02    0.1113069E-02   -0.1120787E-02   -0.3245210E-02   -0.5052311E-02
 -0.6364574E-02   -0.7051494E-02   -0.7048261E-02   -0.6357152E-02   -0.5044121E-02   -0.3237434E-02   -0.1113030E-02    0.1120448E-02    0.3244111E-02    0.5051118E-02
  0.6363790E-02    0.7053086E-02    0.7045369E-02    0.2045738E-01    0.3186533E-01    0.4015224E-01    0.4450726E-01    0.4450325E-01    0.4014124E-01    0.3184939E-01
  0.2044149E-01    0.7049510E-02   -0.7074846E-02   -0.2049126E-01   -0.3189891E-01   -0.4018428E-01   -0.4453970E-01   -0.4453538E-01   -0.4017358E-01   -0.3188298E-01
 -0.2047115E-01   -0.7056509E-02    0.6355364E-02    0.1845434E-01    0.2874533E-01    0.3622088E-01    0.4014917E-01    0.4014547E-01    0.3621059E-01    0.2873062E-01
  0.1843932E-01    0.6345723E-02   -0.6383733E-02   -0.1848620E-01   -0.2877751E-01   -0.3625234E-01   -0.4018064E-01   -0.4017682E-01   -0.3624215E-01   -0.2876229E-01
 -0.1846770E-01   -0.6366851E-02    0.5042358E-02    0.1464386E-01    0.2281043E-01    0.2874254E-01    0.3185946E-01    0.3185606E-01    0.2873293E-01    0.2279637E-01
  0.1462807E-01    0.5027033E-02   -0.5071647E-02   -0.1467484E-01   -0.2284168E-01   -0.2877343E-01   -0.3189022E-01   -0.3188683E-01   -0.2876390E-01   -0.2282723E-01
 -0.1465740E-01   -0.5054219E-02    0.3234880E-02    0.9399023E-02    0.1464159E-01    0.1844936E-01    0.2044956E-01    0.2044638E-01    0.1844032E-01    0.1462803E-01
  0.9382805E-02    0.3217703E-02   -0.3265089E-02   -0.9429779E-02   -0.1467235E-01   -0.1847984E-01   -0.2047993E-01   -0.2047684E-01   -0.1847098E-01   -0.1465879E-01
 -0.9413093E-02   -0.3247332E-02    0.1110064E-02    0.3233306E-02    0.5038518E-02    0.6348985E-02    0.7036367E-02    0.7033401E-02    0.6340473E-02    0.5025514E-02
  0.3217320E-02    0.1092725E-02   -0.1140708E-02   -0.3263975E-02   -0.5069001E-02   -0.6379255E-02   -0.7066578E-02   -0.7063717E-02   -0.6371093E-02   -0.5056405E-02
 -0.3248171E-02   -0.1123445E-02   -0.1124250E-02   -0.3249856E-02   -0.5058858E-02   -0.6374211E-02   -0.7067165E-02   -0.7069896E-02   -0.6382126E-02   -0.5071076E-02
 -0.3265037E-02   -0.1140889E-02    0.1093376E-02    0.3219156E-02    0.5028368E-02    0.6343892E-02    0.7036906E-02    0.7039467E-02    0.6351358E-02    0.5040023E-02
  0.3233836E-02    0.1109733E-02   -0.3249416E-02   -0.9415816E-02   -0.1466210E-01   -0.1847469E-01   -0.2048039E-01   -0.2048291E-01   -0.1848196E-01   -0.1467335E-01
 -0.9429895E-02   -0.3264828E-02    0.3218355E-02    0.9384986E-02    0.1463149E-01    0.1844426E-01    0.2044995E-01    0.2045228E-01    0.1845104E-01    0.1464209E-01
  0.9398436E-02    0.3233471E-02   -0.5057176E-02   -0.1466092E-01   -0.2283110E-01   -0.2876793E-01   -0.3189032E-01   -0.3189261E-01   -0.2877456E-01   -0.2284141E-01
 -0.1467385E-01   -0.5071348E-02    0.5026054E-02    0.1463000E-01    0.2280040E-01    0.2873733E-01    0.3185968E-01    0.3186184E-01    0.2874347E-01    0.2280997E-01
  0.1464226E-01    0.5039776E-02   -0.6370876E-02   -0.1847192E-01   -0.2876635E-01   -0.3624649E-01   -0.4018013E-01   -0.4018220E-01   -0.3625255E-01   -0.2877577E-01
 -0.1848370E-01   -0.6383832E-02    0.6339456E-02    0.1844073E-01    0.2873533E-01    0.3621557E-01    0.4014923E-01    0.4015114E-01    0.3622121E-01    0.2874421E-01
  0.1845197E-01    0.6352125E-02   -0.7061852E-02   -0.2047568E-01   -0.3188680E-01   -0.4017820E-01   -0.4453825E-01   -0.4454021E-01   -0.4018382E-01   -0.3189548E-01
 -0.2048656E-01   -0.7073749E-02    0.7030026E-02    0.2044409E-01    0.3185543E-01    0.4014703E-01    0.4450708E-01    0.4450891E-01    0.4015235E-01    0.3186375E-01
  0.2045463E-01    0.7041870E-02   -0.7062047E-02   -0.2047583E-01   -0.3188684E-01   -0.4017812E-01   -0.4453810E-01   -0.4453997E-01   -0.4018351E-01   -0.3189523E-01
 -0.2048633E-01   -0.7073553E-02    0.7030063E-02    0.2044404E-01    0.3185533E-01    0.4014674E-01    0.4450675E-01    0.4450860E-01    0.4015193E-01    0.3186335E-01
  0.2045428E-01    0.7041357E-02   -0.6371824E-02   -0.1847261E-01   -0.2876666E-01   -0.3624645E-01   -0.4017978E-01   -0.4018163E-01   -0.3625187E-01   -0.2877509E-01
 -0.1848312E-01   -0.6383470E-02    0.6339540E-02    0.1844052E-01    0.2873481E-01    0.3621478E-01    0.4014826E-01    0.4015005E-01    0.3622009E-01    0.2874315E-01
  0.1845095E-01    0.6351154E-02   -0.5058739E-02   -0.1466198E-01   -0.2283158E-01   -0.2876787E-01   -0.3188978E-01   -0.3189177E-01   -0.2877358E-01   -0.2284040E-01
 -0.1467307E-01   -0.5070936E-02    0.5026111E-02    0.1462957E-01    0.2279948E-01    0.2873610E-01    0.3185812E-01    0.3186007E-01    0.2874179E-01    0.2280833E-01
  0.1464071E-01    0.5038529E-02   -0.3250758E-02   -0.9416693E-02   -0.1466238E-01   -0.1847437E-01   -0.2047960E-01   -0.2048178E-01   -0.1848066E-01   -0.1467220E-01
 -0.9429061E-02   -0.3264413E-02    0.3218195E-02    0.9384308E-02    0.1463036E-01    0.1844259E-01    0.2044796E-01    0.2045020E-01    0.1844885E-01    0.1464002E-01
  0.9396634E-02    0.3231698E-02   -0.1125496E-02   -0.3250609E-02   -0.5059009E-02   -0.6373787E-02   -0.7066274E-02   -0.7068699E-02   -0.6380898E-02   -0.5070110E-02
 -0.3264558E-02   -0.1141043E-02    0.1092711E-02    0.3218082E-02    0.5026809E-02    0.6341917E-02    0.7034680E-02    0.7037048E-02    0.6348975E-02    0.5037923E-02
  0.3232008E-02    0.1108244E-02    0.1109126E-02    0.3232902E-02    0.5038650E-02    0.6349592E-02    0.7037372E-02    0.7034564E-02    0.6341482E-02    0.5026024E-02
  0.3216924E-02    0.1091465E-02   -0.1142215E-02   -0.3265657E-02   -0.5070918E-02   -0.6381342E-02   -0.7068933E-02   -0.7066193E-02   -0.6373337E-02   -0.5058400E-02
 -0.3249770E-02   -0.1124400E-02    0.3235038E-02    0.9399491E-02    0.1464235E-01    0.1845042E-01    0.2045079E-01    0.2044760E-01    0.1844117E-01    0.1462783E-01
  0.9381029E-02    0.3214555E-02   -0.3268053E-02   -0.9432140E-02   -0.1467435E-01   -0.1848198E-01   -0.2048213E-01   -0.2047890E-01   -0.1847300E-01   -0.1466039E-01
 -0.9414036E-02   -0.3247963E-02    0.5043197E-02    0.1464492E-01    0.2281163E-01    0.2874385E-01    0.3186078E-01    0.3185724E-01    0.2873349E-01    0.2279530E-01
  0.1462413E-01    0.5019925E-02   -0.5076783E-02   -0.1467784E-01   -0.2284372E-01   -0.2877536E-01   -0.3189193E-01   -0.3188845E-01   -0.2876542E-01   -0.2282801E-01
 -0.1465746E-01   -0.5053709E-02    0.6356931E-02    0.1845612E-01    0.2874704E-01    0.3622256E-01    0.4015071E-01    0.4014678E-01    0.3621127E-01    0.2872917E-01
  0.1843292E-01    0.6330735E-02   -0.6391304E-02   -0.1848945E-01   -0.2877898E-01   -0.3625379E-01   -0.4018181E-01   -0.4017765E-01   -0.3624305E-01   -0.2876239E-01
 -0.1846679E-01   -0.6365467E-02    0.7048651E-02    0.2046055E-01    0.3186781E-01    0.4015465E-01    0.4450919E-01    0.4450495E-01    0.4014282E-01    0.3184879E-01
  0.2043483E-01    0.7017183E-02   -0.7083027E-02   -0.2049349E-01   -0.3189877E-01   -0.4018541E-01   -0.4454010E-01   -0.4453483E-01   -0.4017432E-01   -0.3188245E-01
 -0.2046887E-01   -0.7055311E-02   -0.7447412E-03   -0.6655541E-03   -0.5268716E-03   -0.3999160E-03   -0.2653551E-03   -0.2524123E-03   -0.3390559E-03   -0.4048680E-03
 -0.5129892E-03   -0.4807614E-03   -0.5261775E-03   -0.5579650E-03   -0.4444877E-03   -0.2396796E-03   -0.2550279E-03   -0.2825356E-03   -0.2892823E-03   -0.5306814E-03
 -0.7507459E-03   -0.7364297E-03   -0.6597006E-03   -0.5645354E-03   -0.4103386E-03   -0.2762566E-03   -0.1523968E-03   -0.1347145E-03   -0.2198234E-03   -0.3068846E-03
 -0.4330436E-03   -0.4933619E-03   -0.4600062E-03   -0.4510202E-03   -0.3427932E-03   -0.1538783E-03   -0.1441251E-03   -0.1861915E-03   -0.2165472E-03   -0.4295463E-03
 -0.6616184E-03   -0.6794194E-03   -0.5382596E-03   -0.4250036E-03   -0.2572897E-03   -0.1252793E-03   -0.9652808E-05    0.1725208E-04   -0.8115199E-04   -0.1818548E-03
 -0.3114829E-03   -0.4084978E-03   -0.3624164E-03   -0.3131348E-03   -0.2155679E-03   -0.3453665E-04    0.1218177E-04   -0.4944613E-04   -0.1038912E-03   -0.2737681E-03
 -0.5208517E-03   -0.5877541E-03   -0.4093035E-03   -0.2940340E-03   -0.1304354E-03    0.3755371E-05    0.1343268E-03    0.1456259E-03    0.4571430E-04   -0.3821024E-04
 -0.1988482E-03   -0.3012818E-03   -0.2320721E-03   -0.1945190E-03   -0.8664430E-04    0.1170504E-03    0.1448539E-03    0.8217174E-04    0.5305476E-04   -0.1370920E-03