 TITLE = "NAVIER-STOKES OUTPUT"
 VARIABLES = "X", "Y", "U", "V", "P", "Pex", "Vor"
 ZONE I =   21, J =   21, DATAPACKING = BLOCK, VARLOCATION=(3=CELLCENTERED, 4=CELLCENTERED,5=CELLCENTERED,6=CELLCENTERED, 7=CELLCENTERED)
  0.0000000E+00    0.3141593E+00    0.6283185E+00    0.9424778E+00    0.1256637E+01    0.1570796E+01    0.1884956E+01    0.2199115E+01    0.2513274E+01    0.2827433E+01
  0.3141593E+01    0.3455752E+01    0.3769911E+01    0.4084071E+01    0.4398230E+01    0.4712389E+01    0.5026548E+01    0.5340708E+01    0.5654867E+01    0.5969026E+01
  0.6283185E+01    0.0000000E+00    0.3141593E+00    0.6283185E+00    0.9424778E+00    0.1256637E+01    0.1570796E+01    0.1884956E+01    0.2199115E+01    0.2513274E+01
  0.2827433E+01    0.3141593E+01    0.3455752E+01    0.3769911E+01    0.4084071E+01    0.4398230E+01    0.4712389E+01    0.5026548E+01    0.5340708E+01    0.5654867E+01
  0.5969026E+01    0.6283185E+01    0.0000000E+00    0.3141593E+00    0.6283185E+00    0.9424778E+00    0.1256637E+01    0.1570796E+01    0.1884956E+01    0.2199115E+01
  0.2513274E+01    0.2827433E+01    0.3141593E+01    0.3455752E+01    0.3769911E+01    0.4084071E+01    0.4398230E+01    0.4712389E+01    0.5026548E+01    0.5340708E+01
  0.5654867E+01    0.5969026E+01    0.6283185E+01    0.0000000E+00    0.3141593E+00    0.6283185E+00    0.9424778E+00    0.1256637E+01    0.1570796E+01    0.1884956E+01
  0.2199115E+01    0.2513274E+01    0.2827433E+01    0.3141593E+01    0.3455752E+01    0.3769911E+01    0.4084071E+01    0.4398230E+01    0.4712389E+01    0.5026548E+01
  0.5340708E+01    0.5654867E+01    0.5969026E+01    0.6283185E+01    0.0000000E+00    0.3141593E+00    0.6283185E+00    0.9424778E+00    0.1256637E+01    0.1570796E+01
  0.1884956E+01    0.2199115E+01    0.2513274E+01    0.2827433E+01    0.3141593E+01    0.3455752E+01    0.3769911E+01    0.4084071E+01    0.4398230E+01    0.4712389E+01
  0.5026548E+01    0.5340708E+01    0.5654867E+01    0.5969026E+01    0.6283185E+01    0.0000000E+00    0.3141593E+00    0.6283185E+00    0.9424778E+00    0.1256637E+01
  0.1570796E+01    0.1884956E+01    0.2199115E+01    0.2513274E+01    0.2827433E+01    0.3141593E+01    0.3455752E+01    0.3769911E+01    0.4084071E+01    0.4398230E+01
  0.4712389E+01    0.5026548E+01    0.5340708E+01    0.5654867E+01    0.5969026E+01    0.6283185E+01    0.0000000E+00    0.3141593E+00    0.6283185E+00    0.9424778E+00
  0.1256637E+01    0.1570796E+01    0.1884956E+01    0.2199115E+01    0.2513274E+01    0.2827433E+01    0.3141593E+01    0.3455752E+01    0.3769911E+01    0.4084071E+01
  0.4398230E+01    0.4712389E+01    0.5026548E+01    0.5340708E+01    0.5654867E+01    0.5969026E+01    0.6283185E+01    0.0000000E+00    0.3141593E+00    0.6283185E+00
  0.9424778E+00    0.1256637E+01    0.1570796E+01    0.1884956E+01    0.2199115E+01    0.2513274E+01    0.2827433E+01    0.3141593E+01    0.3455752E+01    0.3769911E+01
  0.4084071E+01    0.4398230E+01    0.4712389E+01    0.5026548E+01    0.5340708E+01    0.5654867E+01    0.5969026E+01    0.6283185E+01    0.0000000E+00    0.3141593E+00
  0.6283185E+00    0.9424778E+00    0.1256637E+01    0.1570796E+01    0.1884956E+01    0.2199115E+01    0.2513274E+01    0.2827433E+01    0.3141593E+01    0.3455752E+01
  0.3769911E+01    0.4084071E+01    0.4398230E+01    0.4712389E+01    0.5026548E+01    0.5340708E+01    0.5654867E+01    0.5969026E+01    0.6283185E+01    0.0000000E+00
  0.3141593E+00    0.6283185E+00    0.9424778E+00    0.1256637E+01    0.1570796E+01    0.1884956E+01    0.2199115E+01    0.2513274E+01    0.2827433E+01    0.3141593E+01
  0.3455752E+01    0.3769911E+01    0.4084071E+01    0.4398230E+01    0.4712389E+01    0.5026548E+01    0.5340708E+01    0.5654867E+01    0.5969026E+01    0.6283185E+01
  0.0000000E+00    0.3141593E+00    0.6283185E+00    0.9424778E+00    0.1256637E+01    0.1570796E+01    0.1884956E+01    0.2199115E+01    0.2513274E+01    0.2827433E+01
  0.3141593E+01    0.3455752E+01    0.3769911E+01    0.4084071E+01    0.4398230E+01    0.4712389E+01    0.5026548E+01    0.5340708E+01    0.5654867E+01    0.5969026E+01
  0.6283185E+01    0.0000000E+00    0.3141593E+00    0.6283185E+00    0.9424778E+00    0.1256637E+01    0.1570796E+01    0.1884956E+01    0.2199115E+01    0.2513274E+01
  0.2827433E+01    0.3141593E+01    0.3455752E+01    0.3769911E+01    0.4084071E+01    0.4398230E+01    0.4712389E+01    0.5026548E+01    0.5340708E+01    0.5654867E+01
  0.5969026E+01    0.6283185E+01    0.0000000E+00    0.3141593E+00    0.6283185E+00    0.9424778E+00    0.1256637E+01    0.1570796E+01    0.1884956E+01    0.2199115E+01
  0.2513274E+01    0.2827433E+01    0.3141593E+01    0.3455752E+01    0.3769911E+01    0.4084071E+01    0.4398230E+01    0.4712389E+01    0.5026548E+01    0.5340708E+01
  0.5654867E+01    0.5969026E+01    0.6283185E+01    0.0000000E+00    0.3141593E+00    0.6283185E+00    0.9424778E+00    0.1256637E+01    0.1570796E+01    0.1884956E+01
  0.2199115E+01    0.2513274E+01    0.2827433E+01    0.3141593E+01    0.3455752E+01    0.3769911E+01    0.4084071E+01    0.4398230E+01    0.4712389E+01    0.5026548E+01
  0.5340708E+01    0.5654867E+01    0.5969026E+01    0.6283185E+01    0.0000000E+00    0.3141593E+00    0.6283185E+00    0.9424778E+00    0.1256637E+01    0.1570796E+01
  0.1884956E+01    0.2199115E+01    0.2513274E+01    0.2827433E+01    0.3141593E+01    0.3455752E+01    0.3769911E+01    0.4084071E+01    0.4398230E+01    0.4712389E+01
  0.5026548E+01    0.5340708E+01    0.5654867E+01    0.5969026E+01    0.6283185E+01    0.0000000E+00    0.3141593E+00    0.6283185E+00    0.9424778E+00    0.1256637E+01
  0.1570796E+01    0.1884956E+01    0.2199115E+01    0.2513274E+01    0.2827433E+01    0.3141593E+01    0.3455752E+01    0.3769911E+01    0.4084071E+01    0.4398230E+01
  0.4712389E+01    0.5026548E+01    0.5340708E+01    0.5654867E+01    0.5969026E+01    0.6283185E+01    0.0000000E+00    0.3141593E+00    0.6283185E+00    0.9424778E+00
  0.1256637E+01    0.1570796E+01    0.1884956E+01    0.2199115E+01    0.2513274E+01    0.2827433E+01    0.3141593E+01    0.3455752E+01    0.3769911E+01    0.4084071E+01
  0.4398230E+01    0.4712389E+01    0.5026548E+01    0.5340708E+01    0.5654867E+01    0.5969026E+01    0.6283185E+01    0.0000000E+00    0.3141593E+00    0.6283185E+00
  0.9424778E+00    0.1256637E+01    0.1570796E+01    0.1884956E+01    0.2199115E+01    0.2513274E+01    0.2827433E+01    0.3141593E+01    0.3455752E+01    0.3769911E+01
  0.4084071E+01    0.4398230E+01    0.4712389E+01    0.5026548E+01    0.5340708E+01    0.5654867E+01    0.5969026E+01    0.6283185E+01    0.0000000E+00    0.3141593E+00
  0.6283185E+00    0.9424778E+00    0.1256637E+01    0.1570796E+01    0.1884956E+01    0.2199115E+01    0.2513274E+01    0.2827433E+01    0.3141593E+01    0.3455752E+01
  0.3769911E+01    0.4084071E+01    0.4398230E+01    0.4712389E+01    0.5026548E+01    0.5340708E+01    0.5654867E+01    0.5969026E+01    0.6283185E+01    0.0000000E+00
  0.3141593E+00    0.6283185E+00    0.9424778E+00    0.1256637E+01    0.1570796E+01    0.1884956E+01    0.2199115E+01    0.2513274E+01    0.2827433E+01    0.3141593E+01
  0.3455752E+01    0.3769911E+01    0.4084071E+01    0.4398230E+01    0.4712389E+01    0.5026548E+01    0.5340708E+01    0.5654867E+01    0.5969026E+01    0.6283185E+01
  0.0000000E+00    0.3141593E+00    0.6283185E+00    0.9424778E+00    0.1256637E+01    0.1570796E+01    0.1884956E+01    0.2199115E+01    0.2513274E+01    0.2827433E+01
  0.3141593E+01    0.3455752E+01    0.3769911E+01    0.4084071E+01    0.4398230E+01    0.4712389E+01    0.5026548E+01    0.5340708E+01    0.5654867E+01    0.5969026E+01
  0.6283185E+01    0.0000000E+00    0.0000000E+00    0.0000000E+00    0.0000000E+00    0.0000000E+00    0.0000000E+00    0.0000000E+00    0.0000000E+00    0.0000000E+00
  0.0000000E+00    0.0000000E+00    0.0000000E+00    0.0000000E+00    0.0000000E+00    0.0000000E+00    0.0000000E+00    0.0000000E+00    0.0000000E+00    0.0000000E+00
  0.0000000E+00    0.0000000E+00    0.3141593E+00    0.3141593E+00    0.3141593E+00    0.3141593E+00    0.3141593E+00    0.3141593E+00    0.3141593E+00    0.3141593E+00
  0.3141593E+00    0.3141593E+00    0.3141593E+00    0.3141593E+00    0.3141593E+00    0.3141593E+00    0.3141593E+00    0.3141593E+00    0.3141593E+00    0.3141593E+00
  0.3141593E+00    0.3141593E+00    0.3141593E+00    0.6283185E+00    0.6283185E+00    0.6283185E+00    0.6283185E+00    0.6283185E+00    0.6283185E+00    0.6283185E+00
  0.6283185E+00    0.6283185E+00    0.6283185E+00    0.6283185E+00    0.6283185E+00    0.6283185E+00    0.6283185E+00    0.6283185E+00    0.6283185E+00    0.6283185E+00
  0.6283185E+00    0.6283185E+00    0.6283185E+00    0.6283185E+00    0.9424778E+00    0.9424778E+00    0.9424778E+00    0.9424778E+00    0.9424778E+00    0.9424778E+00
  0.9424778E+00    0.9424778E+00    0.9424778E+00    0.9424778E+00    0.9424778E+00    0.9424778E+00    0.9424778E+00    0.9424778E+00    0.9424778E+00    0.9424778E+00
  0.9424778E+00    0.9424778E+00    0.9424778E+00    0.9424778E+00    0.9424778E+00    0.1256637E+01    0.1256637E+01    0.1256637E+01    0.1256637E+01    0.1256637E+01
  0.1256637E+01    0.1256637E+01    0.1256637E+01    0.1256637E+01    0.1256637E+01    0.1256637E+01    0.1256637E+01    0.1256637E+01    0.1256637E+01    0.1256637E+01
  0.1256637E+01    0.1256637E+01    0.1256637E+01    0.1256637E+01    0.1256637E+01    0.1256637E+01    0.1570796E+01    0.1570796E+01    0.1570796E+01    0.1570796E+01
  0.1570796E+01    0.1570796E+01    0.1570796E+01    0.1570796E+01    0.1570796E+01    0.1570796E+01    0.1570796E+01    0.1570796E+01    0.1570796E+01    0.1570796E+01
  0.1570796E+01    0.1570796E+01    0.1570796E+01    0.1570796E+01    0.1570796E+01    0.1570796E+01    0.1570796E+01    0.1884956E+01    0.1884956E+01    0.1884956E+01
  0.1884956E+01    0.1884956E+01    0.1884956E+01    0.1884956E+01    0.1884956E+01    0.1884956E+01    0.1884956E+01    0.1884956E+01    0.1884956E+01    0.1884956E+01
  0.1884956E+01    0.1884956E+01    0.1884956E+01    0.1884956E+01    0.1884956E+01    0.1884956E+01    0.1884956E+01    0.1884956E+01    0.2199115E+01    0.2199115E+01
  0.2199115E+01    0.2199115E+01    0.2199115E+01    0.2199115E+01    0.2199115E+01    0.2199115E+01    0.2199115E+01    0.2199115E+01    0.2199115E+01    0.2199115E+01
  0.2199115E+01    0.2199115E+01    0.2199115E+01    0.2199115E+01    0.2199115E+01    0.2199115E+01    0.2199115E+01    0.2199115E+01    0.2199115E+01    0.2513274E+01
  0.2513274E+01    0.2513274E+01    0.2513274E+01    0.2513274E+01    0.2513274E+01    0.2513274E+01    0.2513274E+01    0.2513274E+01    0.2513274E+01    0.2513274E+01
  0.2513274E+01    0.2513274E+01    0.2513274E+01    0.2513274E+01    0.2513274E+01    0.2513274E+01    0.2513274E+01    0.2513274E+01    0.2513274E+01    0.2513274E+01
  0.2827433E+01    0.2827433E+01    0.2827433E+01    0.2827433E+01    0.2827433E+01    0.2827433E+01    0.2827433E+01    0.2827433E+01    0.2827433E+01    0.2827433E+01
  0.2827433E+01    0.2827433E+01    0.2827433E+01    0.2827433E+01    0.2827433E+01    0.2827433E+01    0.2827433E+01    0.2827433E+01    0.2827433E+01    0.2827433E+01
  0.2827433E+01    0.3141593E+01    0.3141593E+01    0.3141593E+01    0.3141593E+01    0.3141593E+01    0.3141593E+01    0.3141593E+01    0.3141593E+01    0.3141593E+01
  0.3141593E+01    0.3141593E+01    0.3141593E+01    0.3141593E+01    0.3141593E+01    0.3141593E+01    0.3141593E+01    0.3141593E+01    0.3141593E+01    0.3141593E+01
  0.3141593E+01    0.3141593E+01    0.3455752E+01    0.3455752E+01    0.3455752E+01    0.3455752E+01    0.3455752E+01    0.3455752E+01    0.3455752E+01    0.3455752E+01
  0.3455752E+01    0.3455752E+01    0.3455752E+01    0.3455752E+01    0.3455752E+01    0.3455752E+01    0.3455752E+01    0.3455752E+01    0.3455752E+01    0.3455752E+01
  0.3455752E+01    0.3455752E+01    0.3455752E+01    0.3769911E+01    0.3769911E+01    0.3769911E+01    0.3769911E+01    0.3769911E+01    0.3769911E+01    0.3769911E+01
  0.3769911E+01    0.3769911E+01    0.3769911E+01    0.3769911E+01    0.3769911E+01    0.3769911E+01    0.3769911E+01    0.3769911E+01    0.3769911E+01    0.3769911E+01
  0.3769911E+01    0.3769911E+01    0.3769911E+01    0.3769911E+01    0.4084071E+01    0.4084071E+01    0.4084071E+01    0.4084071E+01    0.4084071E+01    0.4084071E+01
  0.4084071E+01    0.4084071E+01    0.4084071E+01    0.4084071E+01    0.4084071E+01    0.4084071E+01    0.4084071E+01    0.4084071E+01    0.4084071E+01    0.4084071E+01
  0.4084071E+01    0.4084071E+01    0.4084071E+01    0.4084071E+01    0.4084071E+01    0.4398230E+01    0.4398230E+01    0.4398230E+01    0.4398230E+01    0.4398230E+01
  0.4398230E+01    0.4398230E+01    0.4398230E+01    0.4398230E+01    0.4398230E+01    0.4398230E+01    0.4398230E+01    0.4398230E+01    0.4398230E+01    0.4398230E+01
  0.4398230E+01    0.4398230E+01    0.4398230E+01    0.4398230E+01    0.4398230E+01    0.4398230E+01    0.4712389E+01    0.4712389E+01    0.4712389E+01    0.4712389E+01
  0.4712389E+01    0.4712389E+01    0.4712389E+01    0.4712389E+01    0.4712389E+01    0.4712389E+01    0.4712389E+01    0.4712389E+01    0.4712389E+01    0.4712389E+01
  0.4712389E+01    0.4712389E+01    0.4712389E+01    0.4712389E+01    0.4712389E+01    0.4712389E+01    0.4712389E+01    0.5026548E+01    0.5026548E+01    0.5026548E+01
  0.5026548E+01    0.5026548E+01    0.5026548E+01    0.5026548E+01    0.5026548E+01    0.5026548E+01    0.5026548E+01    0.5026548E+01    0.5026548E+01    0.5026548E+01
  0.5026548E+01    0.5026548E+01    0.5026548E+01    0.5026548E+01    0.5026548E+01    0.5026548E+01    0.5026548E+01    0.5026548E+01    0.5340708E+01    0.5340708E+01
  0.5340708E+01    0.5340708E+01    0.5340708E+01    0.5340708E+01    0.5340708E+01    0.5340708E+01    0.5340708E+01    0.5340708E+01    0.5340708E+01    0.5340708E+01
  0.5340708E+01    0.5340708E+01    0.5340708E+01    0.5340708E+01    0.5340708E+01    0.5340708E+01    0.5340708E+01    0.5340708E+01    0.5340708E+01    0.5654867E+01
  0.5654867E+01    0.5654867E+01    0.5654867E+01    0.5654867E+01    0.5654867E+01    0.5654867E+01    0.5654867E+01    0.5654867E+01    0.5654867E+01    0.5654867E+01
  0.5654867E+01    0.5654867E+01    0.5654867E+01    0.5654867E+01    0.5654867E+01    0.5654867E+01    0.5654867E+01    0.5654867E+01    0.5654867E+01    0.5654867E+01
  0.5969026E+01    0.5969026E+01    0.5969026E+01    0.5969026E+01    0.5969026E+01    0.5969026E+01    0.5969026E+01    0.5969026E+01    0.5969026E+01    0.5969026E+01
  0.5969026E+01    0.5969026E+01    0.5969026E+01    0.5969026E+01    0.5969026E+01    0.5969026E+01    0.5969026E+01    0.5969026E+01    0.5969026E+01    0.5969026E+01
  0.5969026E+01    0.6283185E+01    0.6283185E+01    0.6283185E+01    0.6283185E+01    0.6283185E+01    0.6283185E+01    0.6283185E+01    0.6283185E+01    0.6283185E+01
  0.6283185E+01    0.6283185E+01    0.6283185E+01    0.6283185E+01    0.6283185E+01    0.6283185E+01    0.6283185E+01    0.6283185E+01    0.6283185E+01    0.6283185E+01
  0.6283185E+01    0.6283185E+01   -0.4744231E-02   -0.4280057E-02   -0.3396969E-02   -0.2181270E-02   -0.7521554E-03    0.7504812E-03    0.2179393E-02    0.3394409E-02
  0.4277440E-02    0.4743397E-02    0.4744980E-02    0.4280662E-02    0.3397082E-02    0.2181310E-02    0.7525549E-03   -0.7496580E-03   -0.2178582E-02   -0.3394061E-02
 -0.4277185E-02   -0.4741822E-02   -0.1376415E-01   -0.1241689E-01   -0.9854200E-02   -0.6326837E-02   -0.2180213E-02    0.2179728E-02    0.6325998E-02    0.9852729E-02
  0.1241534E-01    0.1376407E-01    0.1376553E-01    0.1241819E-01    0.9854993E-02    0.6327432E-02    0.2180897E-02   -0.2178903E-02   -0.6325332E-02   -0.9852530E-02
 -0.1241512E-01   -0.1376244E-01   -0.2143654E-01   -0.1933826E-01   -0.1534689E-01   -0.9853171E-02   -0.3394922E-02    0.3395578E-02    0.9853518E-02    0.1534686E-01
  0.1933828E-01    0.2143741E-01    0.2143816E-01    0.1933975E-01    0.1534796E-01    0.9853989E-02    0.3395621E-02   -0.3394971E-02   -0.9853039E-02   -0.1534665E-01
 -0.1933790E-01   -0.2143603E-01   -0.2701106E-01   -0.2436693E-01   -0.1933753E-01   -0.1241512E-01   -0.4277402E-02    0.4279031E-02    0.1241651E-01    0.1933858E-01
  0.2436795E-01    0.2701226E-01    0.2701244E-01    0.2436823E-01    0.1933848E-01    0.1241582E-01    0.4277869E-02   -0.4278696E-02   -0.1241629E-01   -0.1933861E-01
 -0.2436778E-01   -0.2701171E-01   -0.2994177E-01   -0.2701068E-01   -0.2143551E-01   -0.1376200E-01   -0.4741305E-02    0.4743528E-02    0.1376396E-01    0.2143713E-01
  0.2701204E-01    0.2994287E-01    0.2994275E-01    0.2701149E-01    0.2143601E-01    0.1376229E-01    0.4741375E-02   -0.4743578E-02   -0.1376411E-01   -0.2143749E-01
 -0.2701233E-01   -0.2994305E-01   -0.2994180E-01   -0.2701071E-01   -0.2143548E-01   -0.1376194E-01   -0.4741249E-02    0.4743547E-02    0.1376396E-01    0.2143705E-01
  0.2701180E-01    0.2994247E-01    0.2994212E-01    0.2701075E-01    0.2143533E-01    0.1376163E-01    0.4740788E-02   -0.4744041E-02   -0.1376456E-01   -0.2143787E-01
 -0.2701264E-01   -0.2994336E-01   -0.2701160E-01   -0.2436711E-01   -0.1933744E-01   -0.1241495E-01   -0.4277263E-02    0.4279111E-02    0.1241648E-01    0.1933839E-01
  0.2436739E-01    0.2701101E-01    0.2701057E-01    0.2436614E-01    0.1933643E-01    0.1241392E-01    0.4276251E-02   -0.4280138E-02   -0.1241758E-01   -0.1933961E-01
 -0.2436870E-01   -0.2701260E-01   -0.2143727E-01   -0.1933836E-01   -0.1534662E-01   -0.9852827E-02   -0.3394670E-02    0.3395678E-02    0.9853464E-02    0.1534669E-01
  0.1933760E-01    0.2143547E-01    0.2143511E-01    0.1933640E-01    0.1534479E-01    0.9851187E-02    0.3393079E-02   -0.3397212E-02   -0.9854909E-02   -0.1534825E-01
 -0.1933922E-01   -0.2143703E-01   -0.1376439E-01   -0.1241667E-01   -0.9853642E-02   -0.6326301E-02   -0.2179892E-02    0.2179748E-02    0.6325869E-02    0.9852620E-02
  0.1241483E-01    0.1376172E-01    0.1376139E-01    0.1241389E-01    0.9851200E-02    0.6324081E-02    0.2177801E-02   -0.2181612E-02   -0.6327661E-02   -0.9854482E-02
 -0.1241655E-01   -0.1376335E-01   -0.4744430E-02   -0.4279578E-02   -0.3396131E-02   -0.2180570E-02   -0.7518066E-03    0.7504127E-03    0.2178937E-02    0.3394016E-02
  0.4276825E-02    0.4740787E-02    0.4740571E-02    0.4276289E-02    0.3393232E-02    0.2177943E-02    0.7494436E-03   -0.7525837E-03   -0.2181015E-02   -0.3395944E-02
 -0.4278538E-02   -0.4742372E-02    0.4740532E-02    0.4276659E-02    0.3393888E-02    0.2178609E-02    0.7498692E-03   -0.7524575E-03   -0.2181349E-02   -0.3396805E-02
 -0.4279924E-02   -0.4744273E-02   -0.4744240E-02   -0.4279980E-02   -0.3396906E-02   -0.2181314E-02   -0.7523972E-03    0.7501000E-03    0.2179211E-02    0.3394842E-02
  0.4278204E-02    0.4742959E-02    0.1376158E-01    0.1241428E-01    0.9851679E-02    0.6324503E-02    0.2178056E-02   -0.2181740E-02   -0.6328123E-02   -0.9855253E-02
 -0.1241780E-01   -0.1376489E-01   -0.1376475E-01   -0.1241734E-01   -0.9854483E-02   -0.6327169E-02   -0.2180599E-02    0.2179417E-02    0.6325945E-02    0.9853203E-02
  0.1241603E-01    0.1376350E-01    0.2143514E-01    0.1933660E-01    0.1534503E-01    0.9851209E-02    0.3392959E-02   -0.3397501E-02   -0.9855598E-02   -0.1534907E-01
 -0.1934011E-01   -0.2143823E-01   -0.2143792E-01   -0.1933915E-01   -0.1534755E-01   -0.9853673E-02   -0.3395302E-02    0.3395241E-02    0.9853438E-02    0.1534709E-01
  0.1933836E-01    0.2143664E-01    0.2701081E-01    0.2436608E-01    0.1933620E-01    0.1241351E-01    0.4275638E-02   -0.4280854E-02   -0.1241841E-01   -0.1934041E-01
 -0.2436942E-01   -0.2701311E-01   -0.2701256E-01   -0.2436804E-01   -0.1933829E-01   -0.1241560E-01   -0.4277792E-02    0.4278757E-02    0.1241643E-01    0.1933853E-01
  0.2436767E-01    0.2701152E-01    0.2994209E-01    0.2701012E-01    0.2143438E-01    0.1376048E-01    0.4739586E-02   -0.4745267E-02   -0.1376567E-01   -0.2143876E-01
 -0.2701335E-01   -0.2994371E-01   -0.2994317E-01   -0.2701165E-01   -0.2143606E-01   -0.1376235E-01   -0.4741480E-02    0.4743454E-02    0.1376389E-01    0.2143701E-01
  0.2701154E-01    0.2994187E-01    0.2994141E-01    0.2700980E-01    0.2143413E-01    0.1376028E-01    0.4739487E-02   -0.4745249E-02   -0.1376562E-01   -0.2143856E-01
 -0.2701295E-01   -0.2994336E-01   -0.2994276E-01   -0.2701112E-01   -0.2143565E-01   -0.1376188E-01   -0.4741041E-02    0.4743713E-02    0.1376418E-01    0.2143716E-01
  0.2701151E-01    0.2994166E-01    0.2701027E-01    0.2436549E-01    0.1933559E-01    0.1241300E-01    0.4275302E-02   -0.4280926E-02   -0.1241814E-01   -0.1933977E-01
 -0.2436850E-01   -0.2701196E-01   -0.2701127E-01   -0.2436670E-01   -0.1933696E-01   -0.1241434E-01   -0.4276647E-02    0.4279754E-02    0.1241715E-01    0.1933891E-01
  0.2436769E-01    0.2701111E-01    0.2143513E-01    0.1933593E-01    0.1534421E-01    0.9850437E-02    0.3392436E-02   -0.3397623E-02   -0.9855103E-02   -0.1534802E-01
 -0.1933866E-01   -0.2143631E-01   -0.2143582E-01   -0.1933708E-01   -0.1534540E-01   -0.9851692E-02   -0.3393536E-02    0.3396825E-02    0.9854604E-02    0.1534778E-01
  0.1933840E-01    0.2143598E-01    0.1376071E-01    0.1241347E-01    0.9850685E-02    0.6323557E-02    0.2177454E-02   -0.2181808E-02   -0.6327535E-02   -0.9853918E-02
 -0.1241574E-01   -0.1376240E-01   -0.1376200E-01   -0.1241446E-01   -0.9851747E-02   -0.6324627E-02   -0.2178300E-02    0.2181394E-02    0.6327595E-02    0.9854310E-02
  0.1241653E-01    0.1376295E-01    0.4740736E-02    0.4276182E-02    0.3392957E-02    0.2177673E-02    0.7492535E-03   -0.7525774E-03   -0.2180738E-02   -0.3395443E-02
 -0.4277884E-02   -0.4741383E-02   -0.4740765E-02   -0.4276520E-02   -0.3393607E-02   -0.2178375E-02   -0.7497811E-03    0.7526469E-03    0.2181194E-02    0.3396292E-02
  0.4279482E-02    0.4743490E-02    0.4733953E-02    0.1375405E-01    0.2142647E-01    0.2699958E-01    0.2992787E-01    0.2992496E-01    0.2699088E-01    0.2141377E-01
  0.1374170E-01    0.4725646E-02   -0.4764203E-02   -0.1378632E-01   -0.2145847E-01   -0.2703055E-01   -0.2995831E-01   -0.2995610E-01   -0.2702272E-01   -0.2144577E-01
 -0.1377212E-01   -0.4750408E-02    0.4269840E-02    0.1240683E-01    0.1932786E-01    0.2435517E-01    0.2699659E-01    0.2699372E-01    0.2434694E-01    0.1931593E-01
  0.1239402E-01    0.4258591E-02   -0.4300274E-02   -0.1243852E-01   -0.1935948E-01   -0.2438625E-01   -0.2702745E-01   -0.2702487E-01   -0.2437853E-01   -0.1934755E-01
 -0.1242435E-01   -0.4286134E-02    0.3386876E-02    0.9844190E-02    0.1533634E-01    0.1932556E-01    0.2142133E-01    0.2141861E-01    0.1931783E-01    0.1532496E-01
  0.9831108E-02    0.3373617E-02   -0.3417505E-02   -0.9875430E-02   -0.1536760E-01   -0.1935657E-01   -0.2145223E-01   -0.2144969E-01   -0.1934914E-01   -0.1535621E-01
 -0.9861710E-02   -0.3403251E-02    0.2171605E-02    0.6317076E-02    0.9842622E-02    0.1240309E-01    0.1374781E-01    0.1374523E-01    0.1239573E-01    0.9831555E-02
  0.6303792E-02    0.2157415E-02   -0.2202310E-02   -0.6347993E-02   -0.9873568E-02   -0.1243392E-01   -0.1377863E-01   -0.1377620E-01   -0.1242685E-01   -0.9862728E-02
 -0.6334712E-02   -0.2187998E-02    0.7428208E-03    0.2170668E-02    0.3384446E-02    0.4265341E-02    0.4727141E-02    0.4724693E-02    0.4258284E-02    0.3373695E-02
  0.2157458E-02    0.7284843E-03   -0.7734878E-03   -0.2201327E-02   -0.3415092E-02   -0.4295948E-02   -0.4757830E-02   -0.4755503E-02   -0.4289271E-02   -0.3404812E-02
 -0.2188515E-02   -0.7593888E-03   -0.7594787E-03   -0.2189114E-02   -0.3406068E-02   -0.4291129E-02   -0.4757668E-02   -0.4759998E-02   -0.4297827E-02   -0.3416403E-02
 -0.2202008E-02   -0.7735339E-03    0.7290635E-03    0.2158770E-02    0.3375739E-02    0.4260735E-02    0.4727168E-02    0.4729381E-02    0.4266989E-02    0.3385416E-02
  0.2171022E-02    0.7426317E-03   -0.2188457E-02   -0.6335741E-02   -0.9864385E-02   -0.1242892E-01   -0.1377833E-01   -0.1378048E-01   -0.1243520E-01   -0.9874141E-02
 -0.6347951E-02   -0.2201914E-02    0.2158146E-02    0.6305512E-02    0.9834091E-02    0.1239855E-01    0.1374790E-01    0.1374987E-01    0.1240440E-01    0.9843282E-02
  0.6317088E-02    0.2171173E-02   -0.3404383E-02   -0.9863297E-02   -0.1535828E-01   -0.1935141E-01   -0.2145176E-01   -0.2145376E-01   -0.1935722E-01   -0.1536729E-01
 -0.9874630E-02   -0.3416877E-02    0.3373932E-02    0.9832916E-02    0.1532787E-01    0.1932101E-01    0.2142123E-01    0.2142309E-01    0.1932650E-01    0.1533649E-01
  0.9843836E-02    0.3386324E-02   -0.4287847E-02   -0.1242628E-01   -0.1934989E-01   -0.2438087E-01   -0.2702678E-01   -0.2702865E-01   -0.2438622E-01   -0.1935822E-01
 -0.1243682E-01   -0.4299431E-02    0.4257280E-02    0.1239573E-01    0.1931939E-01    0.2435034E-01    0.2699615E-01    0.2699800E-01    0.2435547E-01    0.1932739E-01
  0.1240612E-01    0.4268847E-02   -0.4752655E-02   -0.1377404E-01   -0.2144859E-01   -0.2702511E-01   -0.2995778E-01   -0.2995947E-01   -0.2703008E-01   -0.2145631E-01
 -0.1378370E-01   -0.4763390E-02    0.4721675E-02    0.1374313E-01    0.2141774E-01    0.2699429E-01    0.2992701E-01    0.2992865E-01    0.2699914E-01    0.2142542E-01
  0.1375290E-01    0.4732573E-02   -0.4753277E-02   -0.1377449E-01   -0.2144884E-01   -0.2702522E-01   -0.2995773E-01   -0.2995935E-01   -0.2702991E-01   -0.2145607E-01
 -0.1378353E-01   -0.4763281E-02    0.4721798E-02    0.1374311E-01    0.2141762E-01    0.2699418E-01    0.2992673E-01    0.2992832E-01    0.2699888E-01    0.2142501E-01
  0.1375243E-01    0.4732182E-02   -0.4289212E-02   -0.1242736E-01   -0.1935052E-01   -0.2438110E-01   -0.2702666E-01   -0.2702827E-01   -0.2438569E-01   -0.1935766E-01
 -0.1243630E-01   -0.4299043E-02    0.4257466E-02    0.1239571E-01    0.1931912E-01    0.2434984E-01    0.2699549E-01    0.2699715E-01    0.2435449E-01    0.1932635E-01
  0.1240493E-01    0.4267572E-02   -0.3406090E-02   -0.9864643E-02   -0.1535908E-01   -0.1935163E-01   -0.2145151E-01   -0.2145314E-01   -0.1935640E-01   -0.1536648E-01
 -0.9873846E-02   -0.3416299E-02    0.3374153E-02    0.9832876E-02    0.1532747E-01    0.1932020E-01    0.2142023E-01    0.2142183E-01    0.1932500E-01    0.1533497E-01
  0.9842235E-02    0.3384526E-02   -0.2190339E-02   -0.6337112E-02   -0.9865106E-02   -0.1242903E-01   -0.1377790E-01   -0.1377970E-01   -0.1243422E-01   -0.9873070E-02
 -0.6347108E-02   -0.2201353E-02    0.2158454E-02    0.6305347E-02    0.9833538E-02    0.1239767E-01    0.1374655E-01    0.1374833E-01    0.1240275E-01    0.9841445E-02
  0.6315289E-02    0.2169379E-02   -0.7608026E-03   -0.2190079E-02   -0.3406528E-02   -0.4291098E-02   -0.4757171E-02   -0.4759151E-02   -0.4296780E-02   -0.3415434E-02
 -0.2201278E-02   -0.7730851E-03    0.7291423E-03    0.2158495E-02    0.3375106E-02    0.4259663E-02    0.4725776E-02    0.4727731E-02    0.4265207E-02    0.3383707E-02
  0.2169354E-02    0.7411186E-03    0.7423357E-03    0.2170395E-02    0.3384406E-02    0.4265631E-02    0.4727767E-02    0.4725597E-02    0.4259255E-02    0.3374473E-02
  0.2157938E-02    0.7285155E-03   -0.7737311E-03   -0.2201676E-02   -0.3415780E-02   -0.4297004E-02   -0.4759138E-02   -0.4757110E-02   -0.4290867E-02   -0.3406217E-02
 -0.2189703E-02   -0.7601512E-03    0.2171798E-02    0.6317427E-02    0.9843031E-02    0.1240358E-01    0.1374844E-01    0.1374597E-01    0.1239642E-01    0.9832023E-02
  0.6303578E-02    0.2156575E-02   -0.2202969E-02   -0.6348565E-02   -0.9874228E-02   -0.1243482E-01   -0.1377990E-01   -0.1377754E-01   -0.1242813E-01   -0.9863783E-02
 -0.6335261E-02   -0.2188132E-02    0.3387900E-02    0.9845055E-02    0.1533693E-01    0.1932589E-01    0.2142161E-01    0.2141889E-01    0.1931810E-01    0.1532480E-01
  0.9829900E-02    0.3371354E-02   -0.3418921E-02   -0.9876129E-02   -0.1536805E-01   -0.1935733E-01   -0.2145332E-01   -0.2145080E-01   -0.1935012E-01   -0.1535677E-01
 -0.9861697E-02   -0.3402758E-02    0.4271516E-02    0.1240812E-01    0.1932852E-01    0.2435528E-01    0.2699646E-01    0.2699353E-01    0.2434677E-01    0.1931541E-01
  0.1239191E-01    0.4253780E-02   -0.4302349E-02   -0.1243892E-01   -0.1935956E-01   -0.2438670E-01   -0.2702842E-01   -0.2702581E-01   -0.2437907E-01   -0.1934773E-01
 -0.1242361E-01   -0.4284647E-02    0.4735940E-02    0.1375560E-01    0.2142712E-01    0.2699927E-01    0.2992712E-01    0.2992405E-01    0.2699015E-01    0.2141324E-01
  0.1373847E-01    0.4717281E-02   -0.4766783E-02   -0.1378617E-01   -0.2145797E-01   -0.2703063E-01   -0.2995940E-01   -0.2995681E-01   -0.2702284E-01   -0.2144584E-01
 -0.1377070E-01   -0.4748245E-02    0.8615726E-03    0.8552944E-03    0.8941022E-03    0.9951583E-03    0.9535885E-03    0.9366770E-03    0.8500802E-03    0.7224775E-03
  0.5927711E-03    0.3107375E-03    0.4825179E-03    0.5229416E-03    0.5916945E-03    0.7690143E-03    0.7539907E-03    0.9555824E-03    0.8231599E-03    0.6755876E-03
  0.9505581E-03    0.6089808E-03    0.8564934E-03    0.8509700E-03    0.8981727E-03    0.9612883E-03    0.9690459E-03    0.9470523E-03    0.8662602E-03    0.7933545E-03
  0.6743371E-03    0.4680190E-03    0.5954065E-03    0.6182857E-03    0.6686753E-03    0.9206117E-03    0.9090998E-03    0.1039195E-02    0.9073447E-03    0.7850432E-03
  0.9606858E-03    0.6815756E-03    0.9056411E-03    0.9096663E-03    0.9376152E-03    0.1024487E-02    0.1042512E-02    0.1013899E-02    0.9765685E-03    0.8771722E-03
  0.7725165E-03    0.6223567E-03    0.6757789E-03    0.7238665E-03    0.8398553E-03    0.1057113E-02    0.1028747E-02    0.1129407E-02    0.1028072E-02    0.8204102E-03
  0.9726200E-03    0.8548896E-03    0.1021245E-02    0.9871798E-03    0.1027871E-02    0.1089851E-02    0.1113606E-02    0.1131765E-02    0.1031369E-02    0.9331853E-03
  0.8464947E-03    0.6428140E-03    0.7226066E-03    0.8367553E-03    0.9384279E-03    0.1123376E-02    0.1120130E-02    0.1173707E-02    0.1015506E-02    0.8282869E-03