 TITLE = "NAVIER-STOKES OUTPUT"
 VARIABLES = "X", "Y", "U", "V", "P", "Pex", "Vor"
 ZONE I =   21, J =   21, DATAPACKING = BLOCK, VARLOCATION=(3=CELLCENTERED, 4=CELLCENTERED,5=CELLCENTERED,6=CELLCENTERED, 7=CELLCENTERED)
  0.0000000E+00    0.3141593E+00    0.6283185E+00    0.9424778E+00    0.1256637E+01    0.1570796E+01    0.1884956E+01    0.2199115E+01    0.2513274E+01    0.2827433E+01
  0.3141593E+01    0.3455752E+01    0.3769911E+01    0.4084071E+01    0.4398230E+01    0.4712389E+01    0.5026548E+01    0.5340708E+01    0.5654867E+01    0.5969026E+01
  0.6283185E+01    0.0000000E+00    0.3141593E+00    0.6283185E+00    0.9424778E+00    0.1256637E+01    0.1570796E+01    0.1884956E+01    0.2199115E+01    0.2513274E+01
  0.2827433E+01    0.3141593E+01    0.3455752E+01    0.3769911E+01    0.4084071E+01    0.4398230E+01    0.4712389E+01    0.5026548E+01    0.5340708E+01    0.5654867E+01
  0.5969026E+01    0.6283185E+01    0.0000000E+00    0.3141593E+00    0.6283185E+00    0.9424778E+00    0.1256637E+01    0.1570796E+01    0.1884956E+01    0.2199115E+01
  0.2513274E+01    0.2827433E+01    0.3141593E+01    0.3455752E+01    0.3769911E+01    0.4084071E+01    0.4398230E+01    0.4712389E+01    0.5026548E+01    0.5340708E+01
  0.5654867E+01    0.5969026E+01    0.6283185E+01    0.0000000E+00    0.3141593E+00    0.6283185E+00    0.9424778E+00    0.1256637E+01    0.1570796E+01    0.1884956E+01
  0.2199115E+01    0.2513274E+01    0.2827433E+01    0.3141593E+01    0.3455752E+01    0.3769911E+01    0.4084071E+01    0.4398230E+01    0.4712389E+01    0.5026548E+01
  0.5340708E+01    0.5654867E+01    0.5969026E+01    0.6283185E+01    0.0000000E+00    0.3141593E+00    0.6283185E+00    0.9424778E+00    0.1256637E+01    0.1570796E+01
  0.1884956E+01    0.2199115E+01    0.2513274E+01    0.2827433E+01    0.3141593E+01    0.3455752E+01    0.3769911E+01    0.4084071E+01    0.4398230E+01    0.4712389E+01
  0.5026548E+01    0.5340708E+01    0.5654867E+01    0.5969026E+01    0.6283185E+01    0.0000000E+00    0.3141593E+00    0.6283185E+00    0.9424778E+00    0.1256637E+01
  0.1570796E+01    0.1884956E+01    0.2199115E+01    0.2513274E+01    0.2827433E+01    0.3141593E+01    0.3455752E+01    0.3769911E+01    0.4084071E+01    0.4398230E+01
  0.4712389E+01    0.5026548E+01    0.5340708E+01    0.5654867E+01    0.5969026E+01    0.6283185E+01    0.0000000E+00    0.3141593E+00    0.6283185E+00    0.9424778E+00
  0.1256637E+01    0.1570796E+01    0.1884956E+01    0.2199115E+01    0.2513274E+01    0.2827433E+01    0.3141593E+01    0.3455752E+01    0.3769911E+01    0.4084071E+01
  0.4398230E+01    0.4712389E+01    0.5026548E+01    0.5340708E+01    0.5654867E+01    0.5969026E+01    0.6283185E+01    0.0000000E+00    0.3141593E+00    0.6283185E+00
  0.9424778E+00    0.1256637E+01    0.1570796E+01    0.1884956E+01    0.2199115E+01    0.2513274E+01    0.2827433E+01    0.3141593E+01    0.3455752E+01    0.3769911E+01
  0.4084071E+01    0.4398230E+01    0.4712389E+01    0.5026548E+01    0.5340708E+01    0.5654867E+01    0.5969026E+01    0.6283185E+01    0.0000000E+00    0.3141593E+00
  0.6283185E+00    0.9424778E+00    0.1256637E+01    0.1570796E+01    0.1884956E+01    0.2199115E+01    0.2513274E+01    0.2827433E+01    0.3141593E+01    0.3455752E+01
  0.3769911E+01    0.4084071E+01    0.4398230E+01    0.4712389E+01    0.5026548E+01    0.5340708E+01    0.5654867E+01    0.5969026E+01    0.6283185E+01    0.0000000E+00
  0.3141593E+00    0.6283185E+00    0.9424778E+00    0.1256637E+01    0.1570796E+01    0.1884956E+01    0.2199115E+01    0.2513274E+01    0.2827433E+01    0.3141593E+01
  0.3455752E+01    0.3769911E+01    0.4084071E+01    0.4398230E+01    0.4712389E+01    0.5026548E+01    0.5340708E+01    0.5654867E+01    0.5969026E+01    0.6283185E+01
  0.0000000E+00    0.3141593E+00    0.6283185E+00    0.9424778E+00    0.1256637E+01    0.1570796E+01    0.1884956E+01    0.2199115E+01    0.2513274E+01    0.2827433E+01
  0.3141593E+01    0.3455752E+01    0.3769911E+01    0.4084071E+01    0.4398230E+01    0.4712389E+01    0.5026548E+01    0.5340708E+01    0.5654867E+01    0.5969026E+01
  0.6283185E+01    0.0000000E+00    0.3141593E+00    0.6283185E+00    0.9424778E+00    0.1256637E+01    0.1570796E+01    0.1884956E+01    0.2199115E+01    0.2513274E+01
  0.2827433E+01    0.3141593E+01    0.3455752E+01    0.3769911E+01    0.4084071E+01    0.4398230E+01    0.4712389E+01    0.5026548E+01    0.5340708E+01    0.5654867E+01
  0.5969026E+01    0.6283185E+01    0.0000000E+00    0.3141593E+00    0.6283185E+00    0.9424778E+00    0.1256637E+01    0.1570796E+01    0.1884956E+01    0.2199115E+01
  0.2513274E+01    0.2827433E+01    0.3141593E+01    0.3455752E+01    0.3769911E+01    0.4084071E+01    0.4398230E+01    0.4712389E+01    0.5026548E+01    0.5340708E+01
  0.5654867E+01    0.5969026E+01    0.6283185E+01    0.0000000E+00    0.3141593E+00    0.6283185E+00    0.9424778E+00    0.1256637E+01    0.1570796E+01    0.1884956E+01
  0.2199115E+01    0.2513274E+01    0.2827433E+01    0.3141593E+01    0.3455752E+01    0.3769911E+01    0.4084071E+01    0.4398230E+01    0.4712389E+01    0.5026548E+01
  0.5340708E+01    0.5654867E+01    0.5969026E+01    0.6283185E+01    0.0000000E+00    0.3141593E+00    0.6283185E+00    0.9424778E+00    0.1256637E+01    0.1570796E+01
  0.1884956E+01    0.2199115E+01    0.2513274E+01    0.2827433E+01    0.3141593E+01    0.3455752E+01    0.3769911E+01    0.4084071E+01    0.4398230E+01    0.4712389E+01
  0.5026548E+01    0.5340708E+01    0.5654867E+01    0.5969026E+01    0.6283185E+01    0.0000000E+00    0.3141593E+00    0.6283185E+00    0.9424778E+00    0.1256637E+01
  0.1570796E+01    0.1884956E+01    0.2199115E+01    0.2513274E+01    0.2827433E+01    0.3141593E+01    0.3455752E+01    0.3769911E+01    0.4084071E+01    0.4398230E+01
  0.4712389E+01    0.5026548E+01    0.5340708E+01    0.5654867E+01    0.5969026E+01    0.6283185E+01    0.0000000E+00    0.3141593E+00    0.6283185E+00    0.9424778E+00
  0.1256637E+01    0.1570796E+01    0.1884956E+01    0.2199115E+01    0.2513274E+01    0.2827433E+01    0.3141593E+01    0.3455752E+01    0.3769911E+01    0.4084071E+01
  0.4398230E+01    0.4712389E+01    0.5026548E+01    0.5340708E+01    0.5654867E+01    0.5969026E+01    0.6283185E+01    0.0000000E+00    0.3141593E+00    0.6283185E+00
  0.9424778E+00    0.1256637E+01    0.1570796E+01    0.1884956E+01    0.2199115E+01    0.2513274E+01    0.2827433E+01    0.3141593E+01    0.3455752E+01    0.3769911E+01
  0.4084071E+01    0.4398230E+01    0.4712389E+01    0.5026548E+01    0.5340708E+01    0.5654867E+01    0.5969026E+01    0.6283185E+01    0.0000000E+00    0.3141593E+00
  0.6283185E+00    0.9424778E+00    0.1256637E+01    0.1570796E+01    0.1884956E+01    0.2199115E+01    0.2513274E+01    0.2827433E+01    0.3141593E+01    0.3455752E+01
  0.3769911E+01    0.4084071E+01    0.4398230E+01    0.4712389E+01    0.5026548E+01    0.5340708E+01    0.5654867E+01    0.5969026E+01    0.6283185E+01    0.0000000E+00
  0.3141593E+00    0.6283185E+00    0.9424778E+00    0.1256637E+01    0.1570796E+01    0.1884956E+01    0.2199115E+01    0.2513274E+01    0.2827433E+01    0.3141593E+01
  0.3455752E+01    0.3769911E+01    0.4084071E+01    0.4398230E+01    0.4712389E+01    0.5026548E+01    0.5340708E+01    0.5654867E+01    0.5969026E+01    0.6283185E+01
  0.0000000E+00    0.3141593E+00    0.6283185E+00    0.9424778E+00    0.1256637E+01    0.1570796E+01    0.1884956E+01    0.2199115E+01    0.2513274E+01    0.2827433E+01
  0.3141593E+01    0.3455752E+01    0.3769911E+01    0.4084071E+01    0.4398230E+01    0.4712389E+01    0.5026548E+01    0.5340708E+01    0.5654867E+01    0.5969026E+01
  0.6283185E+01    0.0000000E+00    0.0000000E+00    0.0000000E+00    0.0000000E+00    0.0000000E+00    0.0000000E+00    0.0000000E+00    0.0000000E+00    0.0000000E+00
  0.0000000E+00    0.0000000E+00    0.0000000E+00    0.0000000E+00    0.0000000E+00    0.0000000E+00    0.0000000E+00    0.0000000E+00    0.0000000E+00    0.0000000E+00
  0.0000000E+00    0.0000000E+00    0.3141593E+00    0.3141593E+00    0.3141593E+00    0.3141593E+00    0.3141593E+00    0.3141593E+00    0.3141593E+00    0.3141593E+00
  0.3141593E+00    0.3141593E+00    0.3141593E+00    0.3141593E+00    0.3141593E+00    0.3141593E+00    0.3141593E+00    0.3141593E+00    0.3141593E+00    0.3141593E+00
  0.3141593E+00    0.3141593E+00    0.3141593E+00    0.6283185E+00    0.6283185E+00    0.6283185E+00    0.6283185E+00    0.6283185E+00    0.6283185E+00    0.6283185E+00
  0.6283185E+00    0.6283185E+00    0.6283185E+00    0.6283185E+00    0.6283185E+00    0.6283185E+00    0.6283185E+00    0.6283185E+00    0.6283185E+00    0.6283185E+00
  0.6283185E+00    0.6283185E+00    0.6283185E+00    0.6283185E+00    0.9424778E+00    0.9424778E+00    0.9424778E+00    0.9424778E+00    0.9424778E+00    0.9424778E+00
  0.9424778E+00    0.9424778E+00    0.9424778E+00    0.9424778E+00    0.9424778E+00    0.9424778E+00    0.9424778E+00    0.9424778E+00    0.9424778E+00    0.9424778E+00
  0.9424778E+00    0.9424778E+00    0.9424778E+00    0.9424778E+00    0.9424778E+00    0.1256637E+01    0.1256637E+01    0.1256637E+01    0.1256637E+01    0.1256637E+01
  0.1256637E+01    0.1256637E+01    0.1256637E+01    0.1256637E+01    0.1256637E+01    0.1256637E+01    0.1256637E+01    0.1256637E+01    0.1256637E+01    0.1256637E+01
  0.1256637E+01    0.1256637E+01    0.1256637E+01    0.1256637E+01    0.1256637E+01    0.1256637E+01    0.1570796E+01    0.1570796E+01    0.1570796E+01    0.1570796E+01
  0.1570796E+01    0.1570796E+01    0.1570796E+01    0.1570796E+01    0.1570796E+01    0.1570796E+01    0.1570796E+01    0.1570796E+01    0.1570796E+01    0.1570796E+01
  0.1570796E+01    0.1570796E+01    0.1570796E+01    0.1570796E+01    0.1570796E+01    0.1570796E+01    0.1570796E+01    0.1884956E+01    0.1884956E+01    0.1884956E+01
  0.1884956E+01    0.1884956E+01    0.1884956E+01    0.1884956E+01    0.1884956E+01    0.1884956E+01    0.1884956E+01    0.1884956E+01    0.1884956E+01    0.1884956E+01
  0.1884956E+01    0.1884956E+01    0.1884956E+01    0.1884956E+01    0.1884956E+01    0.1884956E+01    0.1884956E+01    0.1884956E+01    0.2199115E+01    0.2199115E+01
  0.2199115E+01    0.2199115E+01    0.2199115E+01    0.2199115E+01    0.2199115E+01    0.2199115E+01    0.2199115E+01    0.2199115E+01    0.2199115E+01    0.2199115E+01
  0.2199115E+01    0.2199115E+01    0.2199115E+01    0.2199115E+01    0.2199115E+01    0.2199115E+01    0.2199115E+01    0.2199115E+01    0.2199115E+01    0.2513274E+01
  0.2513274E+01    0.2513274E+01    0.2513274E+01    0.2513274E+01    0.2513274E+01    0.2513274E+01    0.2513274E+01    0.2513274E+01    0.2513274E+01    0.2513274E+01
  0.2513274E+01    0.2513274E+01    0.2513274E+01    0.2513274E+01    0.2513274E+01    0.2513274E+01    0.2513274E+01    0.2513274E+01    0.2513274E+01    0.2513274E+01
  0.2827433E+01    0.2827433E+01    0.2827433E+01    0.2827433E+01    0.2827433E+01    0.2827433E+01    0.2827433E+01    0.2827433E+01    0.2827433E+01    0.2827433E+01
  0.2827433E+01    0.2827433E+01    0.2827433E+01    0.2827433E+01    0.2827433E+01    0.2827433E+01    0.2827433E+01    0.2827433E+01    0.2827433E+01    0.2827433E+01
  0.2827433E+01    0.3141593E+01    0.3141593E+01    0.3141593E+01    0.3141593E+01    0.3141593E+01    0.3141593E+01    0.3141593E+01    0.3141593E+01    0.3141593E+01
  0.3141593E+01    0.3141593E+01    0.3141593E+01    0.3141593E+01    0.3141593E+01    0.3141593E+01    0.3141593E+01    0.3141593E+01    0.3141593E+01    0.3141593E+01
  0.3141593E+01    0.3141593E+01    0.3455752E+01    0.3455752E+01    0.3455752E+01    0.3455752E+01    0.3455752E+01    0.3455752E+01    0.3455752E+01    0.3455752E+01
  0.3455752E+01    0.3455752E+01    0.3455752E+01    0.3455752E+01    0.3455752E+01    0.3455752E+01    0.3455752E+01    0.3455752E+01    0.3455752E+01    0.3455752E+01
  0.3455752E+01    0.3455752E+01    0.3455752E+01    0.3769911E+01    0.3769911E+01    0.3769911E+01    0.3769911E+01    0.3769911E+01    0.3769911E+01    0.3769911E+01
  0.3769911E+01    0.3769911E+01    0.3769911E+01    0.3769911E+01    0.3769911E+01    0.3769911E+01    0.3769911E+01    0.3769911E+01    0.3769911E+01    0.3769911E+01
  0.3769911E+01    0.3769911E+01    0.3769911E+01    0.3769911E+01    0.4084071E+01    0.4084071E+01    0.4084071E+01    0.4084071E+01    0.4084071E+01    0.4084071E+01
  0.4084071E+01    0.4084071E+01    0.4084071E+01    0.4084071E+01    0.4084071E+01    0.4084071E+01    0.4084071E+01    0.4084071E+01    0.4084071E+01    0.4084071E+01
  0.4084071E+01    0.4084071E+01    0.4084071E+01    0.4084071E+01    0.4084071E+01    0.4398230E+01    0.4398230E+01    0.4398230E+01    0.4398230E+01    0.4398230E+01
  0.4398230E+01    0.4398230E+01    0.4398230E+01    0.4398230E+01    0.4398230E+01    0.4398230E+01    0.4398230E+01    0.4398230E+01    0.4398230E+01    0.4398230E+01
  0.4398230E+01    0.4398230E+01    0.4398230E+01    0.4398230E+01    0.4398230E+01    0.4398230E+01    0.4712389E+01    0.4712389E+01    0.4712389E+01    0.4712389E+01
  0.4712389E+01    0.4712389E+01    0.4712389E+01    0.4712389E+01    0.4712389E+01    0.4712389E+01    0.4712389E+01    0.4712389E+01    0.4712389E+01    0.4712389E+01
  0.4712389E+01    0.4712389E+01    0.4712389E+01    0.4712389E+01    0.4712389E+01    0.4712389E+01    0.4712389E+01    0.5026548E+01    0.5026548E+01    0.5026548E+01
  0.5026548E+01    0.5026548E+01    0.5026548E+01    0.5026548E+01    0.5026548E+01    0.5026548E+01    0.5026548E+01    0.5026548E+01    0.5026548E+01    0.5026548E+01
  0.5026548E+01    0.5026548E+01    0.5026548E+01    0.5026548E+01    0.5026548E+01    0.5026548E+01    0.5026548E+01    0.5026548E+01    0.5340708E+01    0.5340708E+01
  0.5340708E+01    0.5340708E+01    0.5340708E+01    0.5340708E+01    0.5340708E+01    0.5340708E+01    0.5340708E+01    0.5340708E+01    0.5340708E+01    0.5340708E+01
  0.5340708E+01    0.5340708E+01    0.5340708E+01    0.5340708E+01    0.5340708E+01    0.5340708E+01    0.5340708E+01    0.5340708E+01    0.5340708E+01    0.5654867E+01
  0.5654867E+01    0.5654867E+01    0.5654867E+01    0.5654867E+01    0.5654867E+01    0.5654867E+01    0.5654867E+01    0.5654867E+01    0.5654867E+01    0.5654867E+01
  0.5654867E+01    0.5654867E+01    0.5654867E+01    0.5654867E+01    0.5654867E+01    0.5654867E+01    0.5654867E+01    0.5654867E+01    0.5654867E+01    0.5654867E+01
  0.5969026E+01    0.5969026E+01    0.5969026E+01    0.5969026E+01    0.5969026E+01    0.5969026E+01    0.5969026E+01    0.5969026E+01    0.5969026E+01    0.5969026E+01
  0.5969026E+01    0.5969026E+01    0.5969026E+01    0.5969026E+01    0.5969026E+01    0.5969026E+01    0.5969026E+01    0.5969026E+01    0.5969026E+01    0.5969026E+01
  0.5969026E+01    0.6283185E+01    0.6283185E+01    0.6283185E+01    0.6283185E+01    0.6283185E+01    0.6283185E+01    0.6283185E+01    0.6283185E+01    0.6283185E+01
  0.6283185E+01    0.6283185E+01    0.6283185E+01    0.6283185E+01    0.6283185E+01    0.6283185E+01    0.6283185E+01    0.6283185E+01    0.6283185E+01    0.6283185E+01
  0.6283185E+01    0.6283185E+01   -0.6387371E-02   -0.5762355E-02   -0.4573217E-02   -0.2936325E-02   -0.1012203E-02    0.1011050E-02    0.2935413E-02    0.4572333E-02
  0.5762012E-02    0.6387182E-02    0.6386876E-02    0.5762175E-02    0.4573368E-02    0.2936536E-02    0.1012577E-02   -0.1010185E-02   -0.2934537E-02   -0.4571518E-02
 -0.5760419E-02   -0.6386270E-02   -0.1853337E-01   -0.1671916E-01   -0.1326833E-01   -0.8518650E-02   -0.2935183E-02    0.2935549E-02    0.8518816E-02    0.1326809E-01
  0.1671904E-01    0.1853384E-01    0.1853435E-01    0.1672029E-01    0.1326927E-01    0.8519355E-02    0.2935738E-02   -0.2934927E-02   -0.8518415E-02   -0.1326806E-01
 -0.1671859E-01   -0.1853281E-01   -0.2886492E-01   -0.2603940E-01   -0.2066474E-01   -0.1326716E-01   -0.4570873E-02    0.4572765E-02    0.1326869E-01    0.2066577E-01
  0.2604024E-01    0.2886628E-01    0.2886670E-01    0.2604090E-01    0.2066585E-01    0.1326795E-01    0.4571383E-02   -0.4572393E-02   -0.1326854E-01   -0.2066599E-01
 -0.2604035E-01   -0.2886571E-01   -0.3637175E-01   -0.3281108E-01   -0.2603854E-01   -0.1671707E-01   -0.5759199E-02    0.5762377E-02    0.1671987E-01    0.2604071E-01
  0.3281267E-01    0.3637307E-01    0.3637301E-01    0.3281214E-01    0.2603934E-01    0.1671762E-01    0.5759453E-02   -0.5762239E-02   -0.1671988E-01   -0.2604106E-01
 -0.3281307E-01   -0.3637338E-01   -0.4031833E-01   -0.3637112E-01   -0.2886365E-01   -0.1853075E-01   -0.6383900E-02    0.6387840E-02    0.1853429E-01    0.2886645E-01
  0.3637304E-01    0.4031936E-01    0.4031890E-01    0.3637156E-01    0.2886391E-01    0.1853081E-01    0.6383761E-02   -0.6388024E-02   -0.1853457E-01   -0.2886695E-01
 -0.3637358E-01   -0.4031984E-01   -0.4031796E-01   -0.3637098E-01   -0.2886356E-01   -0.1853067E-01   -0.6383828E-02    0.6387867E-02    0.1853425E-01    0.2886635E-01
  0.3637278E-01    0.4031884E-01    0.4031820E-01    0.3637077E-01    0.2886312E-01    0.1853013E-01    0.6383195E-02   -0.6388517E-02   -0.1853491E-01   -0.2886715E-01
 -0.3637370E-01   -0.4031981E-01   -0.3637197E-01   -0.3281100E-01   -0.2603831E-01   -0.1671681E-01   -0.5758997E-02    0.5762457E-02    0.1671982E-01    0.2604045E-01
  0.3281195E-01    0.3637162E-01    0.3637091E-01    0.3280980E-01    0.2603709E-01    0.1671563E-01    0.5757776E-02   -0.5763610E-02   -0.1672090E-01   -0.2604168E-01
 -0.3281332E-01   -0.3637325E-01   -0.2886562E-01   -0.2603932E-01   -0.2066432E-01   -0.1326669E-01   -0.4570543E-02    0.4572896E-02    0.1326863E-01    0.2066540E-01
  0.2603919E-01    0.2886404E-01    0.2886336E-01    0.2603723E-01    0.2066239E-01    0.1326485E-01    0.4568768E-02   -0.4574535E-02   -0.1327020E-01   -0.2066701E-01
 -0.2604075E-01   -0.2886550E-01   -0.1853316E-01   -0.1671862E-01   -0.1326761E-01   -0.8517998E-02   -0.2934724E-02    0.2935646E-02    0.8518524E-02    0.1326743E-01
  0.1671747E-01    0.1853099E-01    0.1853049E-01    0.1671595E-01    0.1326506E-01    0.8515641E-02    0.2932507E-02   -0.2937760E-02   -0.8520509E-02   -0.1326936E-01
 -0.1671935E-01   -0.1853263E-01   -0.6387189E-02   -0.5761545E-02   -0.4572207E-02   -0.2935506E-02   -0.1011673E-02    0.1010976E-02    0.2934557E-02    0.4570718E-02
  0.5759261E-02    0.6383995E-02    0.6383692E-02    0.5758312E-02    0.4569262E-02    0.2932827E-02    0.1009088E-02   -0.1013408E-02   -0.2936814E-02   -0.4572961E-02
 -0.5761406E-02   -0.6386039E-02    0.6384364E-02    0.5759630E-02    0.4570792E-02    0.2934299E-02    0.1010352E-02   -0.1012671E-02   -0.2936720E-02   -0.4573493E-02
 -0.5762721E-02   -0.6387957E-02   -0.6388070E-02   -0.5762983E-02   -0.4573853E-02   -0.2937190E-02   -0.1013111E-02    0.1010079E-02    0.2934207E-02    0.4571077E-02
  0.5760564E-02    0.6386205E-02    0.1853142E-01    0.1671709E-01    0.1326632E-01    0.8516809E-02    0.2933450E-02   -0.2937260E-02   -0.8520618E-02   -0.1327003E-01
 -0.1672066E-01   -0.1853470E-01   -0.1853452E-01   -0.1672021E-01   -0.1326936E-01   -0.8519671E-02   -0.2936184E-02    0.2934558E-02    0.8518020E-02    0.1326753E-01
  0.1671823E-01    0.1853252E-01    0.2886359E-01    0.2603790E-01    0.2066315E-01    0.1326558E-01    0.4569310E-02   -0.4574435E-02   -0.1327049E-01   -0.2066769E-01
 -0.2604198E-01   -0.2886715E-01   -0.2886673E-01   -0.2604085E-01   -0.2066593E-01   -0.1326822E-01   -0.4571968E-02    0.4571839E-02    0.1326800E-01    0.2066514E-01
  0.2603947E-01    0.2886460E-01    0.3637087E-01    0.3280998E-01    0.2603725E-01    0.1671570E-01    0.5757752E-02   -0.5763910E-02   -0.1672148E-01   -0.2604238E-01
 -0.3281416E-01   -0.3637396E-01   -0.3637340E-01   -0.3281242E-01   -0.2603963E-01   -0.1671811E-01   -0.5760154E-02    0.5761565E-02    0.1671908E-01    0.2604000E-01
  0.3281192E-01    0.3637185E-01    0.4031793E-01    0.3637022E-01    0.2886245E-01    0.1852939E-01    0.6382485E-02   -0.6389303E-02   -0.1853577E-01   -0.2886789E-01
 -0.3637434E-01   -0.4032037E-01   -0.4031957E-01   -0.3637214E-01   -0.2886452E-01   -0.1853144E-01   -0.6384511E-02    0.6387184E-02    0.1853369E-01    0.2886584E-01
  0.3637220E-01    0.4031828E-01    0.4031735E-01    0.3636990E-01    0.2886218E-01    0.1852918E-01    0.6382326E-02   -0.6389385E-02   -0.1853569E-01   -0.2886768E-01
 -0.3637407E-01   -0.4031991E-01   -0.4031905E-01   -0.3637165E-01   -0.2886389E-01   -0.1853082E-01   -0.6384050E-02    0.6387720E-02    0.1853411E-01    0.2886598E-01
  0.3637228E-01    0.4031780E-01    0.3637000E-01    0.3280919E-01    0.2603650E-01    0.1671503E-01    0.5757279E-02   -0.5764082E-02   -0.1672127E-01   -0.2604177E-01
 -0.3281318E-01   -0.3637273E-01   -0.3637201E-01   -0.3281086E-01   -0.2603796E-01   -0.1671646E-01   -0.5758571E-02    0.5762953E-02    0.1672014E-01    0.2604075E-01
  0.3281226E-01    0.3637172E-01    0.2886352E-01    0.2603709E-01    0.2066211E-01    0.1326460E-01    0.4568645E-02   -0.4574573E-02   -0.1327004E-01   -0.2066656E-01
 -0.2604028E-01   -0.2886522E-01   -0.2886458E-01   -0.2603843E-01   -0.2066346E-01   -0.1326570E-01   -0.4569470E-02    0.4573903E-02    0.1326969E-01    0.2066646E-01
  0.2604018E-01    0.2886538E-01    0.1853064E-01    0.1671602E-01    0.1326506E-01    0.8515718E-02    0.2932796E-02   -0.2937280E-02   -0.8519731E-02   -0.1326826E-01
 -0.1671829E-01   -0.1853200E-01   -0.1853179E-01   -0.1671744E-01   -0.1326623E-01   -0.8516477E-02   -0.2933315E-02    0.2937306E-02    0.8520328E-02    0.1326892E-01
  0.1671897E-01    0.1853212E-01    0.6383184E-02    0.5758464E-02    0.4569481E-02    0.2933223E-02    0.1009838E-02   -0.1012493E-02   -0.2935505E-02   -0.4571196E-02
 -0.5759685E-02   -0.6384739E-02   -0.6385104E-02   -0.5759942E-02   -0.4570355E-02   -0.2933694E-02   -0.1009916E-02    0.1013175E-02    0.2936787E-02    0.4572648E-02
  0.5761422E-02    0.6386241E-02    0.6379370E-02    0.1852519E-01    0.2885643E-01    0.3636081E-01    0.4030410E-01    0.4030077E-01    0.3635036E-01    0.2884114E-01
  0.1850920E-01    0.6361618E-02   -0.6410214E-02   -0.1855721E-01   -0.2888879E-01   -0.3639238E-01   -0.4033496E-01   -0.4033204E-01   -0.3638294E-01   -0.2887303E-01
 -0.1853943E-01   -0.6393112E-02    0.5754276E-02    0.1671106E-01    0.2603056E-01    0.3280013E-01    0.3635719E-01    0.3635367E-01    0.3278986E-01    0.2601545E-01
  0.1669424E-01    0.5736716E-02   -0.5785510E-02   -0.1674331E-01   -0.2606272E-01   -0.3283166E-01   -0.3638832E-01   -0.3638505E-01   -0.3282203E-01   -0.2604758E-01
 -0.1672520E-01   -0.5767236E-02    0.4565265E-02    0.1326031E-01    0.2065578E-01    0.2602761E-01    0.2884994E-01    0.2884651E-01    0.2601780E-01    0.2064113E-01
  0.1324309E-01    0.4547077E-02   -0.4596790E-02   -0.1329230E-01   -0.2068759E-01   -0.2605894E-01   -0.2888103E-01   -0.2887781E-01   -0.2604959E-01   -0.2067313E-01
 -0.1327463E-01   -0.4578155E-02    0.2928695E-02    0.8510737E-02    0.1325817E-01    0.1670620E-01    0.1851723E-01    0.1851399E-01    0.1669693E-01    0.1324411E-01
  0.8493627E-02    0.2910192E-02   -0.2960189E-02   -0.8542375E-02   -0.1328958E-01   -0.1673725E-01   -0.1854816E-01   -0.1854508E-01   -0.1672841E-01   -0.1327591E-01
 -0.8525322E-02   -0.2941640E-02    0.1004416E-02    0.2927137E-02    0.4561770E-02    0.5748263E-02    0.6370451E-02    0.6367445E-02    0.5739590E-02    0.4548451E-02
  0.2910698E-02    0.9865109E-03   -0.1035957E-02   -0.2958509E-02   -0.4592856E-02   -0.5779120E-02   -0.6401226E-02   -0.6398373E-02   -0.5770902E-02   -0.4580059E-02
 -0.2942344E-02   -0.1018022E-02   -0.1018863E-02   -0.2943827E-02   -0.4582208E-02   -0.5773608E-02   -0.6401406E-02   -0.6404183E-02   -0.5781639E-02   -0.4594625E-02
 -0.2959319E-02   -0.1035842E-02    0.9875047E-03    0.2912694E-02    0.4551274E-02    0.5742842E-02    0.6370681E-02    0.6373265E-02    0.5750410E-02    0.4563136E-02
  0.2927701E-02    0.1004330E-02   -0.2943096E-02   -0.8527485E-02   -0.1327866E-01   -0.1673151E-01   -0.1854810E-01   -0.1855065E-01   -0.1673886E-01   -0.1329007E-01
 -0.8541858E-02   -0.2958962E-02    0.2912076E-02    0.8496549E-02    0.1324785E-01    0.1670081E-01    0.1851737E-01    0.1851976E-01    0.1670772E-01    0.1325868E-01
  0.8510438E-02    0.2927770E-02   -0.4580375E-02   -0.1327745E-01   -0.2067637E-01   -0.2605287E-01   -0.2888068E-01   -0.2888297E-01   -0.2605955E-01   -0.2068677E-01
 -0.1329050E-01   -0.4594740E-02    0.4549268E-02    0.1324651E-01    0.2064558E-01    0.2602211E-01    0.2884989E-01    0.2885207E-01    0.2602838E-01    0.2065545E-01
  0.1325922E-01    0.4563668E-02   -0.5770076E-02   -0.1672865E-01   -0.2605126E-01   -0.3282531E-01   -0.3638772E-01   -0.3638981E-01   -0.3283137E-01   -0.2606068E-01
 -0.1674050E-01   -0.5783150E-02    0.5738829E-02    0.1669755E-01    0.2602024E-01    0.3279437E-01    0.3635679E-01    0.3635873E-01    0.3280012E-01    0.2602932E-01
  0.1670908E-01    0.5751849E-02   -0.6395646E-02   -0.1854318E-01   -0.2887706E-01   -0.3638575E-01   -0.4033431E-01   -0.4033625E-01   -0.3639132E-01   -0.2888571E-01
 -0.1855410E-01   -0.6407745E-02    0.6364336E-02    0.1851189E-01    0.2884590E-01    0.3635470E-01    0.4030323E-01    0.4030510E-01    0.3636005E-01    0.2885425E-01
  0.1852262E-01    0.6376395E-02   -0.6396187E-02   -0.1854352E-01   -0.2887719E-01   -0.3638574E-01   -0.4033419E-01   -0.4033600E-01   -0.3639101E-01   -0.2888539E-01
 -0.1855376E-01   -0.6407468E-02    0.6364482E-02    0.1851198E-01    0.2884587E-01    0.3635450E-01    0.4030300E-01    0.4030479E-01    0.3635961E-01    0.2885385E-01
  0.1852216E-01    0.6375807E-02   -0.5771251E-02   -0.1672952E-01   -0.2605171E-01   -0.3282535E-01   -0.3638738E-01   -0.3638917E-01   -0.3283054E-01   -0.2605975E-01
 -0.1673961E-01   -0.5782430E-02    0.5739307E-02    0.1669773E-01    0.2602007E-01    0.3279389E-01    0.3635605E-01    0.3635776E-01    0.3279902E-01    0.2602810E-01
  0.1670768E-01    0.5750330E-02   -0.4581980E-02   -0.1327865E-01   -0.2067700E-01   -0.2605287E-01   -0.2888011E-01   -0.2888198E-01   -0.2605823E-01   -0.2068531E-01
 -0.1328915E-01   -0.4593625E-02    0.4550040E-02    0.1324674E-01    0.2064531E-01    0.2602141E-01    0.2884869E-01    0.2885058E-01    0.2602675E-01    0.2065356E-01
  0.1325720E-01    0.4561601E-02   -0.2945142E-02   -0.8528860E-02   -0.1327927E-01   -0.1673139E-01   -0.1854734E-01   -0.1854932E-01   -0.1673716E-01   -0.1328827E-01
 -0.8540129E-02   -0.2957545E-02    0.2912968E-02    0.8496908E-02    0.1324759E-01    0.1669986E-01    0.1851596E-01    0.1851798E-01    0.1670561E-01    0.1325652E-01
  0.8508220E-02    0.2925437E-02   -0.1020566E-02   -0.2945035E-02   -0.4582759E-02   -0.5773459E-02   -0.6400572E-02   -0.6402762E-02   -0.5779838E-02   -0.4592686E-02
 -0.2957532E-02   -0.1034459E-02    0.9884271E-03    0.2913047E-02    0.4550914E-02    0.5741853E-02    0.6369149E-02    0.6371268E-02    0.5748245E-02    0.4560929E-02
  0.2925427E-02    0.1002158E-02    0.1003369E-02    0.2926366E-02    0.4561439E-02    0.5748530E-02    0.6371348E-02    0.6368870E-02    0.5741400E-02    0.4550339E-02
  0.2912269E-02    0.9876659E-03   -0.1035159E-02   -0.2958248E-02   -0.4593160E-02   -0.5780021E-02   -0.6402793E-02   -0.6400275E-02   -0.5772887E-02   -0.4582133E-02
 -0.2944195E-02   -0.1019562E-02    0.2927818E-02    0.8510227E-02    0.1325804E-01    0.1670650E-01    0.1851802E-01    0.1851529E-01    0.1669856E-01    0.1324568E-01
  0.8494742E-02    0.2910735E-02   -0.2959858E-02   -0.8542145E-02   -0.1328974E-01   -0.1673809E-01   -0.1854945E-01   -0.1854667E-01   -0.1673019E-01   -0.1327741E-01
 -0.8526437E-02   -0.2942439E-02    0.4564931E-02    0.1326009E-01    0.2065564E-01    0.2602766E-01    0.2885037E-01    0.2884737E-01    0.2601896E-01    0.2064217E-01
  0.1324330E-01    0.4546464E-02   -0.4597060E-02   -0.1329220E-01   -0.2068770E-01   -0.2605949E-01   -0.2888204E-01   -0.2887914E-01   -0.2605078E-01   -0.2067400E-01
 -0.1327526E-01   -0.4578356E-02    0.5754943E-02    0.1671138E-01    0.2603044E-01    0.3279988E-01    0.3635722E-01    0.3635392E-01    0.3279044E-01    0.2601591E-01
  0.1669333E-01    0.5735172E-02   -0.5786401E-02   -0.1674345E-01   -0.2606263E-01   -0.3283185E-01   -0.3638922E-01   -0.3638599E-01   -0.3282246E-01   -0.2604790E-01
 -0.1672517E-01   -0.5766457E-02    0.6380028E-02    0.1852569E-01    0.2885612E-01    0.3635991E-01    0.4030354E-01    0.4030004E-01    0.3634988E-01    0.2884072E-01
  0.1850706E-01    0.6360345E-02   -0.6411485E-02   -0.1855790E-01   -0.2888873E-01   -0.3639227E-01   -0.4033580E-01   -0.4033282E-01   -0.3638242E-01   -0.2887248E-01
 -0.1853904E-01   -0.6390769E-02   -0.1964035E-03   -0.1384061E-03    0.9551419E-05    0.1458602E-03    0.2099213E-03    0.2654541E-03    0.2052208E-03    0.8541581E-04
  0.4728666E-04    0.1123246E-04   -0.5597344E-04    0.1138935E-03    0.2019642E-03    0.2307458E-03    0.3917675E-03    0.3416486E-03    0.1409908E-03    0.1128417E-03
 -0.6248689E-04   -0.3550663E-03   -0.1259241E-03   -0.4525845E-04    0.9919708E-04    0.2362021E-03    0.3169494E-03    0.3604968E-03    0.2973658E-03    0.1905712E-03
  0.1434044E-03    0.6202586E-04    0.2070293E-04    0.1956829E-03    0.2695529E-03    0.3174862E-03    0.4842467E-03    0.4099793E-03    0.2293690E-03    0.2040816E-03
  0.4122840E-05   -0.2448111E-03    0.5321034E-04    0.1328443E-03    0.2743073E-03    0.4280106E-03    0.4962133E-03    0.5279653E-03    0.4853631E-03    0.3542046E-03
  0.2936695E-03    0.2288073E-03    0.1735263E-03    0.3204745E-03    0.4312364E-03    0.4705979E-03    0.6067866E-03    0.5782816E-03    0.3849100E-03    0.3149935E-03
  0.1820236E-03   -0.6131248E-04    0.1942242E-03    0.2752088E-03    0.4337135E-03    0.5692924E-03    0.6278938E-03    0.6847595E-03    0.6160604E-03    0.4709460E-03
  0.4478248E-03    0.3550928E-03    0.2840178E-03    0.4612770E-03    0.5516554E-03    0.5819920E-03    0.7564881E-03    0.7056963E-03    0.4965151E-03    0.4767740E-03