 TITLE = "NAVIER-STOKES OUTPUT"
 VARIABLES = "X", "Y", "U", "V", "P", "Pex", "Vor"
 ZONE I =   21, J =   21, DATAPACKING = BLOCK, VARLOCATION=(3=CELLCENTERED, 4=CELLCENTERED,5=CELLCENTERED,6=CELLCENTERED, 7=CELLCENTERED)
  0.0000000E+00    0.3141593E+00    0.6283185E+00    0.9424778E+00    0.1256637E+01    0.1570796E+01    0.1884956E+01    0.2199115E+01    0.2513274E+01    0.2827433E+01
  0.3141593E+01    0.3455752E+01    0.3769911E+01    0.4084071E+01    0.4398230E+01    0.4712389E+01    0.5026548E+01    0.5340708E+01    0.5654867E+01    0.5969026E+01
  0.6283185E+01    0.0000000E+00    0.3141593E+00    0.6283185E+00    0.9424778E+00    0.1256637E+01    0.1570796E+01    0.1884956E+01    0.2199115E+01    0.2513274E+01
  0.2827433E+01    0.3141593E+01    0.3455752E+01    0.3769911E+01    0.4084071E+01    0.4398230E+01    0.4712389E+01    0.5026548E+01    0.5340708E+01    0.5654867E+01
  0.5969026E+01    0.6283185E+01    0.0000000E+00    0.3141593E+00    0.6283185E+00    0.9424778E+00    0.1256637E+01    0.1570796E+01    0.1884956E+01    0.2199115E+01
  0.2513274E+01    0.2827433E+01    0.3141593E+01    0.3455752E+01    0.3769911E+01    0.4084071E+01    0.4398230E+01    0.4712389E+01    0.5026548E+01    0.5340708E+01
  0.5654867E+01    0.5969026E+01    0.6283185E+01    0.0000000E+00    0.3141593E+00    0.6283185E+00    0.9424778E+00    0.1256637E+01    0.1570796E+01    0.1884956E+01
  0.2199115E+01    0.2513274E+01    0.2827433E+01    0.3141593E+01    0.3455752E+01    0.3769911E+01    0.4084071E+01    0.4398230E+01    0.4712389E+01    0.5026548E+01
  0.5340708E+01    0.5654867E+01    0.5969026E+01    0.6283185E+01    0.0000000E+00    0.3141593E+00    0.6283185E+00    0.9424778E+00    0.1256637E+01    0.1570796E+01
  0.1884956E+01    0.2199115E+01    0.2513274E+01    0.2827433E+01    0.3141593E+01    0.3455752E+01    0.3769911E+01    0.4084071E+01    0.4398230E+01    0.4712389E+01
  0.5026548E+01    0.5340708E+01    0.5654867E+01    0.5969026E+01    0.6283185E+01    0.0000000E+00    0.3141593E+00    0.6283185E+00    0.9424778E+00    0.1256637E+01
  0.1570796E+01    0.1884956E+01    0.2199115E+01    0.2513274E+01    0.2827433E+01    0.3141593E+01    0.3455752E+01    0.3769911E+01    0.4084071E+01    0.4398230E+01
  0.4712389E+01    0.5026548E+01    0.5340708E+01    0.5654867E+01    0.5969026E+01    0.6283185E+01    0.0000000E+00    0.3141593E+00    0.6283185E+00    0.9424778E+00
  0.1256637E+01    0.1570796E+01    0.1884956E+01    0.2199115E+01    0.2513274E+01    0.2827433E+01    0.3141593E+01    0.3455752E+01    0.3769911E+01    0.4084071E+01
  0.4398230E+01    0.4712389E+01    0.5026548E+01    0.5340708E+01    0.5654867E+01    0.5969026E+01    0.6283185E+01    0.0000000E+00    0.3141593E+00    0.6283185E+00
  0.9424778E+00    0.1256637E+01    0.1570796E+01    0.1884956E+01    0.2199115E+01    0.2513274E+01    0.2827433E+01    0.3141593E+01    0.3455752E+01    0.3769911E+01
  0.4084071E+01    0.4398230E+01    0.4712389E+01    0.5026548E+01    0.5340708E+01    0.5654867E+01    0.5969026E+01    0.6283185E+01    0.0000000E+00    0.3141593E+00
  0.6283185E+00    0.9424778E+00    0.1256637E+01    0.1570796E+01    0.1884956E+01    0.2199115E+01    0.2513274E+01    0.2827433E+01    0.3141593E+01    0.3455752E+01
  0.3769911E+01    0.4084071E+01    0.4398230E+01    0.4712389E+01    0.5026548E+01    0.5340708E+01    0.5654867E+01    0.5969026E+01    0.6283185E+01    0.0000000E+00
  0.3141593E+00    0.6283185E+00    0.9424778E+00    0.1256637E+01    0.1570796E+01    0.1884956E+01    0.2199115E+01    0.2513274E+01    0.2827433E+01    0.3141593E+01
  0.3455752E+01    0.3769911E+01    0.4084071E+01    0.4398230E+01    0.4712389E+01    0.5026548E+01    0.5340708E+01    0.5654867E+01    0.5969026E+01    0.6283185E+01
  0.0000000E+00    0.3141593E+00    0.6283185E+00    0.9424778E+00    0.1256637E+01    0.1570796E+01    0.1884956E+01    0.2199115E+01    0.2513274E+01    0.2827433E+01
  0.3141593E+01    0.3455752E+01    0.3769911E+01    0.4084071E+01    0.4398230E+01    0.4712389E+01    0.5026548E+01    0.5340708E+01    0.5654867E+01    0.5969026E+01
  0.6283185E+01    0.0000000E+00    0.3141593E+00    0.6283185E+00    0.9424778E+00    0.1256637E+01    0.1570796E+01    0.1884956E+01    0.2199115E+01    0.2513274E+01
  0.2827433E+01    0.3141593E+01    0.3455752E+01    0.3769911E+01    0.4084071E+01    0.4398230E+01    0.4712389E+01    0.5026548E+01    0.5340708E+01    0.5654867E+01
  0.5969026E+01    0.6283185E+01    0.0000000E+00    0.3141593E+00    0.6283185E+00    0.9424778E+00    0.1256637E+01    0.1570796E+01    0.1884956E+01    0.2199115E+01
  0.2513274E+01    0.2827433E+01    0.3141593E+01    0.3455752E+01    0.3769911E+01    0.4084071E+01    0.4398230E+01    0.4712389E+01    0.5026548E+01    0.5340708E+01
  0.5654867E+01    0.5969026E+01    0.6283185E+01    0.0000000E+00    0.3141593E+00    0.6283185E+00    0.9424778E+00    0.1256637E+01    0.1570796E+01    0.1884956E+01
  0.2199115E+01    0.2513274E+01    0.2827433E+01    0.3141593E+01    0.3455752E+01    0.3769911E+01    0.4084071E+01    0.4398230E+01    0.4712389E+01    0.5026548E+01
  0.5340708E+01    0.5654867E+01    0.5969026E+01    0.6283185E+01    0.0000000E+00    0.3141593E+00    0.6283185E+00    0.9424778E+00    0.1256637E+01    0.1570796E+01
  0.1884956E+01    0.2199115E+01    0.2513274E+01    0.2827433E+01    0.3141593E+01    0.3455752E+01    0.3769911E+01    0.4084071E+01    0.4398230E+01    0.4712389E+01
  0.5026548E+01    0.5340708E+01    0.5654867E+01    0.5969026E+01    0.6283185E+01    0.0000000E+00    0.3141593E+00    0.6283185E+00    0.9424778E+00    0.1256637E+01
  0.1570796E+01    0.1884956E+01    0.2199115E+01    0.2513274E+01    0.2827433E+01    0.3141593E+01    0.3455752E+01    0.3769911E+01    0.4084071E+01    0.4398230E+01
  0.4712389E+01    0.5026548E+01    0.5340708E+01    0.5654867E+01    0.5969026E+01    0.6283185E+01    0.0000000E+00    0.3141593E+00    0.6283185E+00    0.9424778E+00
  0.1256637E+01    0.1570796E+01    0.1884956E+01    0.2199115E+01    0.2513274E+01    0.2827433E+01    0.3141593E+01    0.3455752E+01    0.3769911E+01    0.4084071E+01
  0.4398230E+01    0.4712389E+01    0.5026548E+01    0.5340708E+01    0.5654867E+01    0.5969026E+01    0.6283185E+01    0.0000000E+00    0.3141593E+00    0.6283185E+00
  0.9424778E+00    0.1256637E+01    0.1570796E+01    0.1884956E+01    0.2199115E+01    0.2513274E+01    0.2827433E+01    0.3141593E+01    0.3455752E+01    0.3769911E+01
  0.4084071E+01    0.4398230E+01    0.4712389E+01    0.5026548E+01    0.5340708E+01    0.5654867E+01    0.5969026E+01    0.6283185E+01    0.0000000E+00    0.3141593E+00
  0.6283185E+00    0.9424778E+00    0.1256637E+01    0.1570796E+01    0.1884956E+01    0.2199115E+01    0.2513274E+01    0.2827433E+01    0.3141593E+01    0.3455752E+01
  0.3769911E+01    0.4084071E+01    0.4398230E+01    0.4712389E+01    0.5026548E+01    0.5340708E+01    0.5654867E+01    0.5969026E+01    0.6283185E+01    0.0000000E+00
  0.3141593E+00    0.6283185E+00    0.9424778E+00    0.1256637E+01    0.1570796E+01    0.1884956E+01    0.2199115E+01    0.2513274E+01    0.2827433E+01    0.3141593E+01
  0.3455752E+01    0.3769911E+01    0.4084071E+01    0.4398230E+01    0.4712389E+01    0.5026548E+01    0.5340708E+01    0.5654867E+01    0.5969026E+01    0.6283185E+01
  0.0000000E+00    0.3141593E+00    0.6283185E+00    0.9424778E+00    0.1256637E+01    0.1570796E+01    0.1884956E+01    0.2199115E+01    0.2513274E+01    0.2827433E+01
  0.3141593E+01    0.3455752E+01    0.3769911E+01    0.4084071E+01    0.4398230E+01    0.4712389E+01    0.5026548E+01    0.5340708E+01    0.5654867E+01    0.5969026E+01
  0.6283185E+01    0.0000000E+00    0.0000000E+00    0.0000000E+00    0.0000000E+00    0.0000000E+00    0.0000000E+00    0.0000000E+00    0.0000000E+00    0.0000000E+00
  0.0000000E+00    0.0000000E+00    0.0000000E+00    0.0000000E+00    0.0000000E+00    0.0000000E+00    0.0000000E+00    0.0000000E+00    0.0000000E+00    0.0000000E+00
  0.0000000E+00    0.0000000E+00    0.3141593E+00    0.3141593E+00    0.3141593E+00    0.3141593E+00    0.3141593E+00    0.3141593E+00    0.3141593E+00    0.3141593E+00
  0.3141593E+00    0.3141593E+00    0.3141593E+00    0.3141593E+00    0.3141593E+00    0.3141593E+00    0.3141593E+00    0.3141593E+00    0.3141593E+00    0.3141593E+00
  0.3141593E+00    0.3141593E+00    0.3141593E+00    0.6283185E+00    0.6283185E+00    0.6283185E+00    0.6283185E+00    0.6283185E+00    0.6283185E+00    0.6283185E+00
  0.6283185E+00    0.6283185E+00    0.6283185E+00    0.6283185E+00    0.6283185E+00    0.6283185E+00    0.6283185E+00    0.6283185E+00    0.6283185E+00    0.6283185E+00
  0.6283185E+00    0.6283185E+00    0.6283185E+00    0.6283185E+00    0.9424778E+00    0.9424778E+00    0.9424778E+00    0.9424778E+00    0.9424778E+00    0.9424778E+00
  0.9424778E+00    0.9424778E+00    0.9424778E+00    0.9424778E+00    0.9424778E+00    0.9424778E+00    0.9424778E+00    0.9424778E+00    0.9424778E+00    0.9424778E+00
  0.9424778E+00    0.9424778E+00    0.9424778E+00    0.9424778E+00    0.9424778E+00    0.1256637E+01    0.1256637E+01    0.1256637E+01    0.1256637E+01    0.1256637E+01
  0.1256637E+01    0.1256637E+01    0.1256637E+01    0.1256637E+01    0.1256637E+01    0.1256637E+01    0.1256637E+01    0.1256637E+01    0.1256637E+01    0.1256637E+01
  0.1256637E+01    0.1256637E+01    0.1256637E+01    0.1256637E+01    0.1256637E+01    0.1256637E+01    0.1570796E+01    0.1570796E+01    0.1570796E+01    0.1570796E+01
  0.1570796E+01    0.1570796E+01    0.1570796E+01    0.1570796E+01    0.1570796E+01    0.1570796E+01    0.1570796E+01    0.1570796E+01    0.1570796E+01    0.1570796E+01
  0.1570796E+01    0.1570796E+01    0.1570796E+01    0.1570796E+01    0.1570796E+01    0.1570796E+01    0.1570796E+01    0.1884956E+01    0.1884956E+01    0.1884956E+01
  0.1884956E+01    0.1884956E+01    0.1884956E+01    0.1884956E+01    0.1884956E+01    0.1884956E+01    0.1884956E+01    0.1884956E+01    0.1884956E+01    0.1884956E+01
  0.1884956E+01    0.1884956E+01    0.1884956E+01    0.1884956E+01    0.1884956E+01    0.1884956E+01    0.1884956E+01    0.1884956E+01    0.2199115E+01    0.2199115E+01
  0.2199115E+01    0.2199115E+01    0.2199115E+01    0.2199115E+01    0.2199115E+01    0.2199115E+01    0.2199115E+01    0.2199115E+01    0.2199115E+01    0.2199115E+01
  0.2199115E+01    0.2199115E+01    0.2199115E+01    0.2199115E+01    0.2199115E+01    0.2199115E+01    0.2199115E+01    0.2199115E+01    0.2199115E+01    0.2513274E+01
  0.2513274E+01    0.2513274E+01    0.2513274E+01    0.2513274E+01    0.2513274E+01    0.2513274E+01    0.2513274E+01    0.2513274E+01    0.2513274E+01    0.2513274E+01
  0.2513274E+01    0.2513274E+01    0.2513274E+01    0.2513274E+01    0.2513274E+01    0.2513274E+01    0.2513274E+01    0.2513274E+01    0.2513274E+01    0.2513274E+01
  0.2827433E+01    0.2827433E+01    0.2827433E+01    0.2827433E+01    0.2827433E+01    0.2827433E+01    0.2827433E+01    0.2827433E+01    0.2827433E+01    0.2827433E+01
  0.2827433E+01    0.2827433E+01    0.2827433E+01    0.2827433E+01    0.2827433E+01    0.2827433E+01    0.2827433E+01    0.2827433E+01    0.2827433E+01    0.2827433E+01
  0.2827433E+01    0.3141593E+01    0.3141593E+01    0.3141593E+01    0.3141593E+01    0.3141593E+01    0.3141593E+01    0.3141593E+01    0.3141593E+01    0.3141593E+01
  0.3141593E+01    0.3141593E+01    0.3141593E+01    0.3141593E+01    0.3141593E+01    0.3141593E+01    0.3141593E+01    0.3141593E+01    0.3141593E+01    0.3141593E+01
  0.3141593E+01    0.3141593E+01    0.3455752E+01    0.3455752E+01    0.3455752E+01    0.3455752E+01    0.3455752E+01    0.3455752E+01    0.3455752E+01    0.3455752E+01
  0.3455752E+01    0.3455752E+01    0.3455752E+01    0.3455752E+01    0.3455752E+01    0.3455752E+01    0.3455752E+01    0.3455752E+01    0.3455752E+01    0.3455752E+01
  0.3455752E+01    0.3455752E+01    0.3455752E+01    0.3769911E+01    0.3769911E+01    0.3769911E+01    0.3769911E+01    0.3769911E+01    0.3769911E+01    0.3769911E+01
  0.3769911E+01    0.3769911E+01    0.3769911E+01    0.3769911E+01    0.3769911E+01    0.3769911E+01    0.3769911E+01    0.3769911E+01    0.3769911E+01    0.3769911E+01
  0.3769911E+01    0.3769911E+01    0.3769911E+01    0.3769911E+01    0.4084071E+01    0.4084071E+01    0.4084071E+01    0.4084071E+01    0.4084071E+01    0.4084071E+01
  0.4084071E+01    0.4084071E+01    0.4084071E+01    0.4084071E+01    0.4084071E+01    0.4084071E+01    0.4084071E+01    0.4084071E+01    0.4084071E+01    0.4084071E+01
  0.4084071E+01    0.4084071E+01    0.4084071E+01    0.4084071E+01    0.4084071E+01    0.4398230E+01    0.4398230E+01    0.4398230E+01    0.4398230E+01    0.4398230E+01
  0.4398230E+01    0.4398230E+01    0.4398230E+01    0.4398230E+01    0.4398230E+01    0.4398230E+01    0.4398230E+01    0.4398230E+01    0.4398230E+01    0.4398230E+01
  0.4398230E+01    0.4398230E+01    0.4398230E+01    0.4398230E+01    0.4398230E+01    0.4398230E+01    0.4712389E+01    0.4712389E+01    0.4712389E+01    0.4712389E+01
  0.4712389E+01    0.4712389E+01    0.4712389E+01    0.4712389E+01    0.4712389E+01    0.4712389E+01    0.4712389E+01    0.4712389E+01    0.4712389E+01    0.4712389E+01
  0.4712389E+01    0.4712389E+01    0.4712389E+01    0.4712389E+01    0.4712389E+01    0.4712389E+01    0.4712389E+01    0.5026548E+01    0.5026548E+01    0.5026548E+01
  0.5026548E+01    0.5026548E+01    0.5026548E+01    0.5026548E+01    0.5026548E+01    0.5026548E+01    0.5026548E+01    0.5026548E+01    0.5026548E+01    0.5026548E+01
  0.5026548E+01    0.5026548E+01    0.5026548E+01    0.5026548E+01    0.5026548E+01    0.5026548E+01    0.5026548E+01    0.5026548E+01    0.5340708E+01    0.5340708E+01
  0.5340708E+01    0.5340708E+01    0.5340708E+01    0.5340708E+01    0.5340708E+01    0.5340708E+01    0.5340708E+01    0.5340708E+01    0.5340708E+01    0.5340708E+01
  0.5340708E+01    0.5340708E+01    0.5340708E+01    0.5340708E+01    0.5340708E+01    0.5340708E+01    0.5340708E+01    0.5340708E+01    0.5340708E+01    0.5654867E+01
  0.5654867E+01    0.5654867E+01    0.5654867E+01    0.5654867E+01    0.5654867E+01    0.5654867E+01    0.5654867E+01    0.5654867E+01    0.5654867E+01    0.5654867E+01
  0.5654867E+01    0.5654867E+01    0.5654867E+01    0.5654867E+01    0.5654867E+01    0.5654867E+01    0.5654867E+01    0.5654867E+01    0.5654867E+01    0.5654867E+01
  0.5969026E+01    0.5969026E+01    0.5969026E+01    0.5969026E+01    0.5969026E+01    0.5969026E+01    0.5969026E+01    0.5969026E+01    0.5969026E+01    0.5969026E+01
  0.5969026E+01    0.5969026E+01    0.5969026E+01    0.5969026E+01    0.5969026E+01    0.5969026E+01    0.5969026E+01    0.5969026E+01    0.5969026E+01    0.5969026E+01
  0.5969026E+01    0.6283185E+01    0.6283185E+01    0.6283185E+01    0.6283185E+01    0.6283185E+01    0.6283185E+01    0.6283185E+01    0.6283185E+01    0.6283185E+01
  0.6283185E+01    0.6283185E+01    0.6283185E+01    0.6283185E+01    0.6283185E+01    0.6283185E+01    0.6283185E+01    0.6283185E+01    0.6283185E+01    0.6283185E+01
  0.6283185E+01    0.6283185E+01   -0.3806546E-01   -0.3433885E-01   -0.2725049E-01   -0.1749440E-01   -0.6025357E-02    0.6034760E-02    0.1750593E-01    0.2726632E-01
  0.3435959E-01    0.3806718E-01    0.3804828E-01    0.3432741E-01    0.2724412E-01    0.1749082E-01    0.6024300E-02   -0.6033721E-02   -0.1750210E-01   -0.2725664E-01
 -0.3434431E-01   -0.3807107E-01   -0.1104703E+00   -0.9965530E-01   -0.7908446E-01   -0.5077125E-01   -0.1748677E-01    0.1751142E-01    0.5079750E-01    0.7911230E-01
  0.9967988E-01    0.1104761E+00    0.1104578E+00    0.9964092E-01    0.7907356E-01    0.5076505E-01    0.1748598E-01   -0.1750667E-01   -0.5078697E-01   -0.7909635E-01
 -0.9966445E-01   -0.1104775E+00   -0.1720617E+00   -0.1552169E+00   -0.1231772E+00   -0.7907854E-01   -0.2723734E-01    0.2727205E-01    0.7911331E-01    0.1232100E+00
  0.1552420E+00    0.1720702E+00    0.1720546E+00    0.1552044E+00    0.1231658E+00    0.7907164E-01    0.2723676E-01   -0.2726579E-01   -0.7910085E-01   -0.1231940E+00
 -0.1552293E+00   -0.1720707E+00   -0.2168114E+00   -0.1955853E+00   -0.1552130E+00   -0.9964588E-01   -0.3432305E-01    0.3436120E-01    0.9968268E-01    0.1552456E+00
  0.1956088E+00    0.2168201E+00    0.2168072E+00    0.1955757E+00    0.1552030E+00    0.9963934E-01    0.3432229E-01   -0.3435562E-01   -0.9967185E-01   -0.1552326E+00
 -0.1955994E+00   -0.2168206E+00   -0.2403372E+00   -0.2168083E+00   -0.1720556E+00   -0.1104597E+00   -0.3804970E-01    0.3808600E-01    0.1104939E+00    0.1720849E+00
  0.2168288E+00    0.2403455E+00    0.2403352E+00    0.2168013E+00    0.1720475E+00    0.1104538E+00    0.3804830E-01   -0.3808239E-01   -0.1104863E+00   -0.1720761E+00
 -0.2168230E+00   -0.2403464E+00   -0.2403371E+00   -0.2168085E+00   -0.1720562E+00   -0.1104608E+00   -0.3805171E-01    0.3808296E-01    0.1104899E+00    0.1720804E+00
  0.2168251E+00    0.2403439E+00    0.2403359E+00    0.2168033E+00    0.1720497E+00    0.1104555E+00    0.3804943E-01   -0.3808169E-01   -0.1104860E+00   -0.1720760E+00
 -0.2168231E+00   -0.2403470E+00   -0.2168117E+00   -0.1955860E+00   -0.1552145E+00   -0.9964883E-01   -0.3432820E-01    0.3435319E-01    0.9967173E-01    0.1552331E+00
  0.1955982E+00    0.2168159E+00    0.2168098E+00    0.1955815E+00    0.1552089E+00    0.9964384E-01    0.3432517E-01   -0.3435400E-01   -0.9967106E-01   -0.1552323E+00
 -0.1955994E+00   -0.2168207E+00   -0.1720618E+00   -0.1552172E+00   -0.1231784E+00   -0.7908160E-01   -0.2724325E-01    0.2726208E-01    0.7909865E-01    0.1231921E+00
  0.1552260E+00    0.1720646E+00    0.1720602E+00    0.1552135E+00    0.1231737E+00    0.7907707E-01    0.2723976E-01   -0.2726438E-01   -0.7910022E-01   -0.1231939E+00
 -0.1552291E+00   -0.1720699E+00   -0.1104688E+00   -0.9965410E-01   -0.7908408E-01   -0.5077235E-01   -0.1749041E-01    0.1750374E-01    0.5078438E-01    0.7909353E-01
  0.9966005E-01    0.1104708E+00    0.1104676E+00    0.9965116E-01    0.7908026E-01    0.5076838E-01    0.1748682E-01   -0.1750683E-01   -0.5078739E-01   -0.7909706E-01
 -0.9966479E-01   -0.1104774E+00   -0.3806319E-01   -0.3433613E-01   -0.2724792E-01   -0.1749241E-01   -0.6024510E-02    0.6033183E-02    0.1750012E-01    0.2725379E-01
  0.3433948E-01    0.3806344E-01    0.3806135E-01    0.3433357E-01    0.2724482E-01    0.1748904E-01    0.6021191E-02   -0.6036556E-02   -0.1750389E-01   -0.2725822E-01
 -0.3434508E-01   -0.3807067E-01    0.3806990E-01    0.3434382E-01    0.2725610E-01    0.1750048E-01    0.6031884E-02   -0.6027188E-02   -0.1749640E-01   -0.2725303E-01
 -0.3434212E-01   -0.3806974E-01   -0.3807087E-01   -0.3434549E-01   -0.2725831E-01   -0.1750302E-01   -0.6034735E-02    0.6023865E-02    0.1749247E-01    0.2724833E-01
  0.3433654E-01    0.3806353E-01    0.1104768E+00    0.9966225E-01    0.7909245E-01    0.5078071E-01    0.1749821E-01   -0.1749716E-01   -0.5077983E-01   -0.7909192E-01
 -0.9966197E-01   -0.1104764E+00   -0.1104768E+00   -0.9966302E-01   -0.7909368E-01   -0.5078245E-01   -0.1750056E-01    0.1749410E-01    0.5077582E-01    0.7908692E-01
  0.9965609E-01    0.1104696E+00    0.1720680E+00    0.1552247E+00    0.1231867E+00    0.7909025E-01    0.2725179E-01   -0.2725429E-01   -0.7909264E-01   -0.1231888E+00
 -0.1552263E+00   -0.1720692E+00   -0.1720687E+00   -0.1552250E+00   -0.1231872E+00   -0.7909132E-01   -0.2725362E-01    0.2725136E-01    0.7908844E-01    0.1231836E+00
  0.1552202E+00    0.1720622E+00    0.2168180E+00    0.1955934E+00    0.1552229E+00    0.9965796E-01    0.3433773E-01   -0.3434383E-01   -0.9966361E-01   -0.1552274E+00
 -0.1955964E+00   -0.2168189E+00   -0.2168175E+00   -0.1955928E+00   -0.1552224E+00   -0.9965819E-01   -0.3433917E-01    0.3434085E-01    0.9965919E-01    0.1552219E+00
  0.1955904E+00    0.2168132E+00    0.2403444E+00    0.2168162E+00    0.1720647E+00    0.1104704E+00    0.3806216E-01   -0.3807196E-01   -0.1104793E+00   -0.1720720E+00
 -0.2168207E+00   -0.2403451E+00   -0.2403429E+00   -0.2168145E+00   -0.1720632E+00   -0.1104699E+00   -0.3806337E-01    0.3806879E-01    0.1104742E+00    0.1720655E+00
  0.2168138E+00    0.2403383E+00    0.2403423E+00    0.2168148E+00    0.1720635E+00    0.1104689E+00    0.3806051E-01   -0.3807379E-01   -0.1104812E+00   -0.1720736E+00
 -0.2168215E+00   -0.2403451E+00   -0.2403419E+00   -0.2168127E+00   -0.1720611E+00   -0.1104678E+00   -0.3806151E-01    0.3807008E-01    0.1104750E+00    0.1720660E+00
  0.2168136E+00    0.2403377E+00    0.2168165E+00    0.1955911E+00    0.1552199E+00    0.9965418E-01    0.3433319E-01   -0.3434898E-01   -0.9966886E-01   -0.1552319E+00
 -0.1955990E+00   -0.2168187E+00   -0.2168145E+00   -0.1955877E+00   -0.1552164E+00   -0.9965221E-01   -0.3433412E-01    0.3434465E-01    0.9966167E-01    0.1552232E+00
  0.1955906E+00    0.2168128E+00    0.1720672E+00    0.1552218E+00    0.1231825E+00    0.7908492E-01    0.2724537E-01   -0.2726165E-01   -0.7910011E-01   -0.1231952E+00
 -0.1552300E+00   -0.1720687E+00   -0.1720642E+00   -0.1552175E+00   -0.1231781E+00   -0.7908249E-01   -0.2724634E-01    0.2725696E-01    0.7909202E-01    0.1231852E+00
  0.1552205E+00    0.1720611E+00    0.1104720E+00    0.9965750E-01    0.7908732E-01    0.5077487E-01    0.1749145E-01   -0.1750463E-01   -0.5078728E-01   -0.7909798E-01
 -0.9966495E-01   -0.1104756E+00   -0.1104720E+00   -0.9965465E-01   -0.7908367E-01   -0.5077285E-01   -0.1749249E-01    0.1750016E-01    0.5077956E-01    0.7908857E-01
  0.9965594E-01    0.1104676E+00    0.3806637E-01    0.3433973E-01    0.2725168E-01    0.1749588E-01    0.6027080E-02   -0.6031839E-02   -0.1749984E-01   -0.2725406E-01
 -0.3434007E-01   -0.3806782E-01   -0.3806921E-01   -0.3434064E-01   -0.2725094E-01   -0.1749548E-01   -0.6028341E-02    0.6029135E-02    0.1749580E-01    0.2724977E-01
  0.3433729E-01    0.3806340E-01    0.3807302E-01    0.1104798E+00    0.1720728E+00    0.2168216E+00    0.2403454E+00    0.2403391E+00    0.2167995E+00    0.1720272E+00
  0.1103965E+00    0.3792190E-01   -0.3814918E-01   -0.1105203E+00   -0.1720918E+00   -0.2168258E+00   -0.2403419E+00   -0.2403379E+00   -0.2168073E+00   -0.1720554E+00
 -0.1104653E+00   -0.3805884E-01    0.3434619E-01    0.9966496E-01    0.1552285E+00    0.1955966E+00    0.2168168E+00    0.2168094E+00    0.1955719E+00    0.1551796E+00
  0.9958333E-01    0.3423120E-01   -0.3442130E-01   -0.9971023E-01   -0.1552514E+00   -0.1956045E+00   -0.2168173E+00   -0.2168118E+00   -0.1955847E+00   -0.1552138E+00
 -0.9965128E-01   -0.3433306E-01    0.2725730E-01    0.7909407E-01    0.1231889E+00    0.1552244E+00    0.1720634E+00    0.1720554E+00    0.1551987E+00    0.1231413E+00
  0.7902205E-01    0.2716808E-01   -0.2732426E-01   -0.7914001E-01   -0.1232156E+00   -0.1552376E+00   -0.1720701E+00   -0.1720639E+00   -0.1552173E+00   -0.1231785E+00
 -0.7908321E-01   -0.2724666E-01    0.1749987E-01    0.5078057E-01    0.7909043E-01    0.9965724E-01    0.1104665E+00    0.1104586E+00    0.9963266E-01    0.7904770E-01
  0.5072057E-01    0.1742999E-01   -0.1755780E-01   -0.5082457E-01   -0.7911980E-01   -0.9967569E-01   -0.1104799E+00   -0.1104737E+00   -0.9965628E-01   -0.7908539E-01
 -0.5077418E-01   -0.1749322E-01    0.6029219E-02    0.1749616E-01    0.2724986E-01    0.3433472E-01    0.3805624E-01    0.3804901E-01    0.3431287E-01    0.2721359E-01
  0.1744773E-01    0.5974694E-02   -0.6079444E-02   -0.1753731E-01   -0.2728065E-01   -0.3435746E-01   -0.3807537E-01   -0.3806977E-01   -0.3434013E-01   -0.2725081E-01
 -0.1749517E-01   -0.6027645E-02   -0.6031301E-02   -0.1750075E-01   -0.2725802E-01   -0.3434867E-01   -0.3807939E-01   -0.3808564E-01   -0.3436720E-01   -0.2728783E-01
 -0.1753927E-01   -0.6073839E-02    0.5987344E-02    0.1746261E-01    0.2722685E-01    0.3432295E-01    0.3805593E-01    0.3806076E-01    0.3433757E-01    0.2725144E-01
  0.1749654E-01    0.6027944E-02   -0.1750167E-01   -0.5078471E-01   -0.7909778E-01   -0.9966995E-01   -0.1104879E+00   -0.1104931E+00   -0.9968521E-01   -0.7912181E-01
 -0.5081498E-01   -0.1753464E-01    0.1746210E-01    0.5074901E-01    0.7906663E-01    0.9964226E-01    0.1104615E+00    0.1104654E+00    0.9965413E-01    0.7908638E-01
  0.5077574E-01    0.1749377E-01   -0.2725906E-01   -0.7909766E-01   -0.1231951E+00   -0.1552351E+00   -0.1720817E+00   -0.1720860E+00   -0.1552475E+00   -0.1232143E+00
 -0.7912144E-01   -0.2728456E-01    0.2722249E-01    0.7906378E-01    0.1231642E+00    0.1552064E+00    0.1720535E+00    0.1720566E+00    0.1552158E+00    0.1231797E+00
  0.7908460E-01    0.2724701E-01   -0.3434787E-01   -0.9966799E-01   -0.1552334E+00   -0.1956052E+00   -0.2168318E+00   -0.2168353E+00   -0.1956154E+00   -0.1552489E+00
 -0.9968708E-01   -0.3436822E-01    0.3431378E-01    0.9963569E-01    0.1552030E+00    0.1955761E+00    0.2168027E+00    0.2168053E+00    0.1955836E+00    0.1552153E+00
  0.9965211E-01    0.3433294E-01   -0.3807503E-01   -0.1104826E+00   -0.1720770E+00   -0.2168289E+00   -0.2403580E+00   -0.2403609E+00   -0.2168374E+00   -0.1720898E+00
 -0.1104983E+00   -0.3809169E-01    0.3804242E-01    0.1104514E+00    0.1720470E+00    0.2167997E+00    0.2403287E+00    0.2403308E+00    0.2168059E+00    0.1720572E+00
  0.1104649E+00    0.3805826E-01   -0.3807568E-01   -0.1104830E+00   -0.1720771E+00   -0.2168288E+00   -0.2403575E+00   -0.2403600E+00   -0.2168361E+00   -0.1720882E+00
 -0.1104965E+00   -0.3808994E-01    0.3804393E-01    0.1104524E+00    0.1720475E+00    0.2167997E+00    0.2403283E+00    0.2403302E+00    0.2168053E+00    0.1720564E+00
  0.1104641E+00    0.3805765E-01   -0.3434911E-01   -0.9966878E-01   -0.1552337E+00   -0.1956047E+00   -0.2168303E+00   -0.2168326E+00   -0.1956114E+00   -0.1552440E+00
 -0.9968151E-01   -0.3436275E-01    0.3431836E-01    0.9963883E-01    0.1552046E+00    0.1955762E+00    0.2168017E+00    0.2168036E+00    0.1955816E+00    0.1552131E+00
  0.9965011E-01    0.3433122E-01   -0.2726102E-01   -0.7909904E-01   -0.1231957E+00   -0.1552345E+00   -0.1720796E+00   -0.1720818E+00   -0.1552412E+00   -0.1232060E+00
 -0.7911189E-01   -0.2727505E-01    0.2723048E-01    0.7906936E-01    0.1231669E+00    0.1552065E+00    0.1720519E+00    0.1720538E+00    0.1552124E+00    0.1231763E+00
  0.7908136E-01    0.2724423E-01   -0.1750504E-01   -0.5078711E-01   -0.7909911E-01   -0.9966980E-01   -0.1104856E+00   -0.1104881E+00   -0.9967692E-01   -0.7911025E-01
 -0.5080119E-01   -0.1752054E-01    0.1747421E-01    0.5075732E-01    0.7907069E-01    0.9964266E-01    0.1104591E+00    0.1104614E+00    0.9964942E-01    0.7908142E-01
  0.5077103E-01    0.1748971E-01   -0.6035249E-02   -0.1750388E-01   -0.2726017E-01   -0.3434928E-01   -0.3807758E-01   -0.3808035E-01   -0.3435739E-01   -0.2727312E-01
 -0.1752064E-01   -0.6054067E-02    0.6004300E-02    0.1747412E-01    0.2723243E-01    0.3432342E-01    0.3805285E-01    0.3805567E-01    0.3433151E-01    0.2724519E-01
  0.1749068E-01    0.6022755E-02    0.6024470E-02    0.1749205E-01    0.2724656E-01    0.3433283E-01    0.3805682E-01    0.3805366E-01    0.3432332E-01    0.2723111E-01
  0.1747183E-01    0.6001408E-02   -0.6056748E-02   -0.1752236E-01   -0.2727385E-01   -0.3435716E-01   -0.3807922E-01   -0.3807597E-01   -0.3434736E-01   -0.2725805E-01
 -0.1750192E-01   -0.6033482E-02    0.1749398E-01    0.5077536E-01    0.7908579E-01    0.9965371E-01    0.1104653E+00    0.1104616E+00    0.9964255E-01    0.7906735E-01
  0.5075066E-01    0.1746569E-01   -0.1752840E-01   -0.5080670E-01   -0.7911252E-01   -0.9967588E-01   -0.1104848E+00   -0.1104810E+00   -0.9966421E-01   -0.7909352E-01
 -0.5078181E-01   -0.1749982E-01    0.2725172E-01    0.7908857E-01    0.1231834E+00    0.1552195E+00    0.1720603E+00    0.1720560E+00    0.1552067E+00    0.1231615E+00
  0.7905841E-01    0.2721665E-01   -0.2728799E-01   -0.7912069E-01   -0.1232090E+00   -0.1552390E+00   -0.1720761E+00   -0.1720716E+00   -0.1552255E+00   -0.1231870E+00
 -0.7909094E-01   -0.2725344E-01    0.3434079E-01    0.9965916E-01    0.1552223E+00    0.1955907E+00    0.2168120E+00    0.2168074E+00    0.1955764E+00    0.1551975E+00
  0.9962429E-01    0.3430014E-01   -0.3437987E-01   -0.9969270E-01   -0.1552473E+00   -0.1956073E+00   -0.2168241E+00   -0.2168194E+00   -0.1955924E+00   -0.1552221E+00
 -0.9965838E-01   -0.3433860E-01    0.3806734E-01    0.1104736E+00    0.1720660E+00    0.2168151E+00    0.2403397E+00    0.2403346E+00    0.2167997E+00    0.1720391E+00
  0.1104356E+00    0.3802697E-01   -0.3810886E-01   -0.1105095E+00   -0.1720914E+00   -0.2168294E+00   -0.2403494E+00   -0.2403445E+00   -0.2168132E+00   -0.1720640E+00
 -0.1104717E+00   -0.3806290E-01   -0.2349214E-02    0.2434698E-03    0.4444123E-02    0.8584936E-02    0.1121798E-01    0.1125934E-01    0.8630553E-02    0.4499985E-02
  0.3109634E-03   -0.2456503E-02   -0.2163721E-02    0.5011432E-03    0.4531795E-02    0.8863361E-02    0.1149200E-01    0.1127390E-01    0.8844704E-02    0.4708026E-02
  0.2118649E-03   -0.2227473E-02    0.2784086E-03    0.2882310E-02    0.7074934E-02    0.1123918E-01    0.1385646E-01    0.1387135E-01    0.1126543E-01    0.7115064E-02
  0.2912232E-02    0.2542725E-03    0.4236168E-03    0.3064833E-02    0.7142041E-02    0.1144471E-01    0.1405271E-01    0.1388971E-01    0.1141350E-01    0.7250258E-02
  0.2839817E-02    0.3460492E-03    0.4489148E-02    0.7092318E-02    0.1131371E-01    0.1548469E-01    0.1806775E-01    0.1810493E-01    0.1549669E-01    0.1131581E-01
  0.7158109E-02    0.4506695E-02    0.4587652E-02    0.7264532E-02    0.1135446E-01    0.1558601E-01    0.1825236E-01    0.1810538E-01    0.1553817E-01    0.1145316E-01
  0.7064986E-02    0.4450606E-02    0.8619970E-02    0.1124693E-01    0.1547438E-01    0.1962771E-01    0.2224398E-01    0.2228439E-01    0.1964417E-01    0.1551274E-01
  0.1135913E-01    0.8663571E-02    0.8771610E-02    0.1144258E-01    0.1548886E-01    0.1976874E-01    0.2243441E-01    0.2223428E-01    0.1973239E-01    0.1564380E-01