 TITLE = "NAVIER-STOKES OUTPUT"
 VARIABLES = "X", "Y", "U", "V", "P", "Pex", "Vor"
 ZONE I =   21, J =   21, DATAPACKING = BLOCK, VARLOCATION=(3=CELLCENTERED, 4=CELLCENTERED,5=CELLCENTERED,6=CELLCENTERED, 7=CELLCENTERED)
  0.0000000E+00    0.3141593E+00    0.6283185E+00    0.9424778E+00    0.1256637E+01    0.1570796E+01    0.1884956E+01    0.2199115E+01    0.2513274E+01    0.2827433E+01
  0.3141593E+01    0.3455752E+01    0.3769911E+01    0.4084071E+01    0.4398230E+01    0.4712389E+01    0.5026548E+01    0.5340708E+01    0.5654867E+01    0.5969026E+01
  0.6283185E+01    0.0000000E+00    0.3141593E+00    0.6283185E+00    0.9424778E+00    0.1256637E+01    0.1570796E+01    0.1884956E+01    0.2199115E+01    0.2513274E+01
  0.2827433E+01    0.3141593E+01    0.3455752E+01    0.3769911E+01    0.4084071E+01    0.4398230E+01    0.4712389E+01    0.5026548E+01    0.5340708E+01    0.5654867E+01
  0.5969026E+01    0.6283185E+01    0.0000000E+00    0.3141593E+00    0.6283185E+00    0.9424778E+00    0.1256637E+01    0.1570796E+01    0.1884956E+01    0.2199115E+01
  0.2513274E+01    0.2827433E+01    0.3141593E+01    0.3455752E+01    0.3769911E+01    0.4084071E+01    0.4398230E+01    0.4712389E+01    0.5026548E+01    0.5340708E+01
  0.5654867E+01    0.5969026E+01    0.6283185E+01    0.0000000E+00    0.3141593E+00    0.6283185E+00    0.9424778E+00    0.1256637E+01    0.1570796E+01    0.1884956E+01
  0.2199115E+01    0.2513274E+01    0.2827433E+01    0.3141593E+01    0.3455752E+01    0.3769911E+01    0.4084071E+01    0.4398230E+01    0.4712389E+01    0.5026548E+01
  0.5340708E+01    0.5654867E+01    0.5969026E+01    0.6283185E+01    0.0000000E+00    0.3141593E+00    0.6283185E+00    0.9424778E+00    0.1256637E+01    0.1570796E+01
  0.1884956E+01    0.2199115E+01    0.2513274E+01    0.2827433E+01    0.3141593E+01    0.3455752E+01    0.3769911E+01    0.4084071E+01    0.4398230E+01    0.4712389E+01
  0.5026548E+01    0.5340708E+01    0.5654867E+01    0.5969026E+01    0.6283185E+01    0.0000000E+00    0.3141593E+00    0.6283185E+00    0.9424778E+00    0.1256637E+01
  0.1570796E+01    0.1884956E+01    0.2199115E+01    0.2513274E+01    0.2827433E+01    0.3141593E+01    0.3455752E+01    0.3769911E+01    0.4084071E+01    0.4398230E+01
  0.4712389E+01    0.5026548E+01    0.5340708E+01    0.5654867E+01    0.5969026E+01    0.6283185E+01    0.0000000E+00    0.3141593E+00    0.6283185E+00    0.9424778E+00
  0.1256637E+01    0.1570796E+01    0.1884956E+01    0.2199115E+01    0.2513274E+01    0.2827433E+01    0.3141593E+01    0.3455752E+01    0.3769911E+01    0.4084071E+01
  0.4398230E+01    0.4712389E+01    0.5026548E+01    0.5340708E+01    0.5654867E+01    0.5969026E+01    0.6283185E+01    0.0000000E+00    0.3141593E+00    0.6283185E+00
  0.9424778E+00    0.1256637E+01    0.1570796E+01    0.1884956E+01    0.2199115E+01    0.2513274E+01    0.2827433E+01    0.3141593E+01    0.3455752E+01    0.3769911E+01
  0.4084071E+01    0.4398230E+01    0.4712389E+01    0.5026548E+01    0.5340708E+01    0.5654867E+01    0.5969026E+01    0.6283185E+01    0.0000000E+00    0.3141593E+00
  0.6283185E+00    0.9424778E+00    0.1256637E+01    0.1570796E+01    0.1884956E+01    0.2199115E+01    0.2513274E+01    0.2827433E+01    0.3141593E+01    0.3455752E+01
  0.3769911E+01    0.4084071E+01    0.4398230E+01    0.4712389E+01    0.5026548E+01    0.5340708E+01    0.5654867E+01    0.5969026E+01    0.6283185E+01    0.0000000E+00
  0.3141593E+00    0.6283185E+00    0.9424778E+00    0.1256637E+01    0.1570796E+01    0.1884956E+01    0.2199115E+01    0.2513274E+01    0.2827433E+01    0.3141593E+01
  0.3455752E+01    0.3769911E+01    0.4084071E+01    0.4398230E+01    0.4712389E+01    0.5026548E+01    0.5340708E+01    0.5654867E+01    0.5969026E+01    0.6283185E+01
  0.0000000E+00    0.3141593E+00    0.6283185E+00    0.9424778E+00    0.1256637E+01    0.1570796E+01    0.1884956E+01    0.2199115E+01    0.2513274E+01    0.2827433E+01
  0.3141593E+01    0.3455752E+01    0.3769911E+01    0.4084071E+01    0.4398230E+01    0.4712389E+01    0.5026548E+01    0.5340708E+01    0.5654867E+01    0.5969026E+01
  0.6283185E+01    0.0000000E+00    0.3141593E+00    0.6283185E+00    0.9424778E+00    0.1256637E+01    0.1570796E+01    0.1884956E+01    0.2199115E+01    0.2513274E+01
  0.2827433E+01    0.3141593E+01    0.3455752E+01    0.3769911E+01    0.4084071E+01    0.4398230E+01    0.4712389E+01    0.5026548E+01    0.5340708E+01    0.5654867E+01
  0.5969026E+01    0.6283185E+01    0.0000000E+00    0.3141593E+00    0.6283185E+00    0.9424778E+00    0.1256637E+01    0.1570796E+01    0.1884956E+01    0.2199115E+01
  0.2513274E+01    0.2827433E+01    0.3141593E+01    0.3455752E+01    0.3769911E+01    0.4084071E+01    0.4398230E+01    0.4712389E+01    0.5026548E+01    0.5340708E+01
  0.5654867E+01    0.5969026E+01    0.6283185E+01    0.0000000E+00    0.3141593E+00    0.6283185E+00    0.9424778E+00    0.1256637E+01    0.1570796E+01    0.1884956E+01
  0.2199115E+01    0.2513274E+01    0.2827433E+01    0.3141593E+01    0.3455752E+01    0.3769911E+01    0.4084071E+01    0.4398230E+01    0.4712389E+01    0.5026548E+01
  0.5340708E+01    0.5654867E+01    0.5969026E+01    0.6283185E+01    0.0000000E+00    0.3141593E+00    0.6283185E+00    0.9424778E+00    0.1256637E+01    0.1570796E+01
  0.1884956E+01    0.2199115E+01    0.2513274E+01    0.2827433E+01    0.3141593E+01    0.3455752E+01    0.3769911E+01    0.4084071E+01    0.4398230E+01    0.4712389E+01
  0.5026548E+01    0.5340708E+01    0.5654867E+01    0.5969026E+01    0.6283185E+01    0.0000000E+00    0.3141593E+00    0.6283185E+00    0.9424778E+00    0.1256637E+01
  0.1570796E+01    0.1884956E+01    0.2199115E+01    0.2513274E+01    0.2827433E+01    0.3141593E+01    0.3455752E+01    0.3769911E+01    0.4084071E+01    0.4398230E+01
  0.4712389E+01    0.5026548E+01    0.5340708E+01    0.5654867E+01    0.5969026E+01    0.6283185E+01    0.0000000E+00    0.3141593E+00    0.6283185E+00    0.9424778E+00
  0.1256637E+01    0.1570796E+01    0.1884956E+01    0.2199115E+01    0.2513274E+01    0.2827433E+01    0.3141593E+01    0.3455752E+01    0.3769911E+01    0.4084071E+01
  0.4398230E+01    0.4712389E+01    0.5026548E+01    0.5340708E+01    0.5654867E+01    0.5969026E+01    0.6283185E+01    0.0000000E+00    0.3141593E+00    0.6283185E+00
  0.9424778E+00    0.1256637E+01    0.1570796E+01    0.1884956E+01    0.2199115E+01    0.2513274E+01    0.2827433E+01    0.3141593E+01    0.3455752E+01    0.3769911E+01
  0.4084071E+01    0.4398230E+01    0.4712389E+01    0.5026548E+01    0.5340708E+01    0.5654867E+01    0.5969026E+01    0.6283185E+01    0.0000000E+00    0.3141593E+00
  0.6283185E+00    0.9424778E+00    0.1256637E+01    0.1570796E+01    0.1884956E+01    0.2199115E+01    0.2513274E+01    0.2827433E+01    0.3141593E+01    0.3455752E+01
  0.3769911E+01    0.4084071E+01    0.4398230E+01    0.4712389E+01    0.5026548E+01    0.5340708E+01    0.5654867E+01    0.5969026E+01    0.6283185E+01    0.0000000E+00
  0.3141593E+00    0.6283185E+00    0.9424778E+00    0.1256637E+01    0.1570796E+01    0.1884956E+01    0.2199115E+01    0.2513274E+01    0.2827433E+01    0.3141593E+01
  0.3455752E+01    0.3769911E+01    0.4084071E+01    0.4398230E+01    0.4712389E+01    0.5026548E+01    0.5340708E+01    0.5654867E+01    0.5969026E+01    0.6283185E+01
  0.0000000E+00    0.3141593E+00    0.6283185E+00    0.9424778E+00    0.1256637E+01    0.1570796E+01    0.1884956E+01    0.2199115E+01    0.2513274E+01    0.2827433E+01
  0.3141593E+01    0.3455752E+01    0.3769911E+01    0.4084071E+01    0.4398230E+01    0.4712389E+01    0.5026548E+01    0.5340708E+01    0.5654867E+01    0.5969026E+01
  0.6283185E+01    0.0000000E+00    0.0000000E+00    0.0000000E+00    0.0000000E+00    0.0000000E+00    0.0000000E+00    0.0000000E+00    0.0000000E+00    0.0000000E+00
  0.0000000E+00    0.0000000E+00    0.0000000E+00    0.0000000E+00    0.0000000E+00    0.0000000E+00    0.0000000E+00    0.0000000E+00    0.0000000E+00    0.0000000E+00
  0.0000000E+00    0.0000000E+00    0.3141593E+00    0.3141593E+00    0.3141593E+00    0.3141593E+00    0.3141593E+00    0.3141593E+00    0.3141593E+00    0.3141593E+00
  0.3141593E+00    0.3141593E+00    0.3141593E+00    0.3141593E+00    0.3141593E+00    0.3141593E+00    0.3141593E+00    0.3141593E+00    0.3141593E+00    0.3141593E+00
  0.3141593E+00    0.3141593E+00    0.3141593E+00    0.6283185E+00    0.6283185E+00    0.6283185E+00    0.6283185E+00    0.6283185E+00    0.6283185E+00    0.6283185E+00
  0.6283185E+00    0.6283185E+00    0.6283185E+00    0.6283185E+00    0.6283185E+00    0.6283185E+00    0.6283185E+00    0.6283185E+00    0.6283185E+00    0.6283185E+00
  0.6283185E+00    0.6283185E+00    0.6283185E+00    0.6283185E+00    0.9424778E+00    0.9424778E+00    0.9424778E+00    0.9424778E+00    0.9424778E+00    0.9424778E+00
  0.9424778E+00    0.9424778E+00    0.9424778E+00    0.9424778E+00    0.9424778E+00    0.9424778E+00    0.9424778E+00    0.9424778E+00    0.9424778E+00    0.9424778E+00
  0.9424778E+00    0.9424778E+00    0.9424778E+00    0.9424778E+00    0.9424778E+00    0.1256637E+01    0.1256637E+01    0.1256637E+01    0.1256637E+01    0.1256637E+01
  0.1256637E+01    0.1256637E+01    0.1256637E+01    0.1256637E+01    0.1256637E+01    0.1256637E+01    0.1256637E+01    0.1256637E+01    0.1256637E+01    0.1256637E+01
  0.1256637E+01    0.1256637E+01    0.1256637E+01    0.1256637E+01    0.1256637E+01    0.1256637E+01    0.1570796E+01    0.1570796E+01    0.1570796E+01    0.1570796E+01
  0.1570796E+01    0.1570796E+01    0.1570796E+01    0.1570796E+01    0.1570796E+01    0.1570796E+01    0.1570796E+01    0.1570796E+01    0.1570796E+01    0.1570796E+01
  0.1570796E+01    0.1570796E+01    0.1570796E+01    0.1570796E+01    0.1570796E+01    0.1570796E+01    0.1570796E+01    0.1884956E+01    0.1884956E+01    0.1884956E+01
  0.1884956E+01    0.1884956E+01    0.1884956E+01    0.1884956E+01    0.1884956E+01    0.1884956E+01    0.1884956E+01    0.1884956E+01    0.1884956E+01    0.1884956E+01
  0.1884956E+01    0.1884956E+01    0.1884956E+01    0.1884956E+01    0.1884956E+01    0.1884956E+01    0.1884956E+01    0.1884956E+01    0.2199115E+01    0.2199115E+01
  0.2199115E+01    0.2199115E+01    0.2199115E+01    0.2199115E+01    0.2199115E+01    0.2199115E+01    0.2199115E+01    0.2199115E+01    0.2199115E+01    0.2199115E+01
  0.2199115E+01    0.2199115E+01    0.2199115E+01    0.2199115E+01    0.2199115E+01    0.2199115E+01    0.2199115E+01    0.2199115E+01    0.2199115E+01    0.2513274E+01
  0.2513274E+01    0.2513274E+01    0.2513274E+01    0.2513274E+01    0.2513274E+01    0.2513274E+01    0.2513274E+01    0.2513274E+01    0.2513274E+01    0.2513274E+01
  0.2513274E+01    0.2513274E+01    0.2513274E+01    0.2513274E+01    0.2513274E+01    0.2513274E+01    0.2513274E+01    0.2513274E+01    0.2513274E+01    0.2513274E+01
  0.2827433E+01    0.2827433E+01    0.2827433E+01    0.2827433E+01    0.2827433E+01    0.2827433E+01    0.2827433E+01    0.2827433E+01    0.2827433E+01    0.2827433E+01
  0.2827433E+01    0.2827433E+01    0.2827433E+01    0.2827433E+01    0.2827433E+01    0.2827433E+01    0.2827433E+01    0.2827433E+01    0.2827433E+01    0.2827433E+01
  0.2827433E+01    0.3141593E+01    0.3141593E+01    0.3141593E+01    0.3141593E+01    0.3141593E+01    0.3141593E+01    0.3141593E+01    0.3141593E+01    0.3141593E+01
  0.3141593E+01    0.3141593E+01    0.3141593E+01    0.3141593E+01    0.3141593E+01    0.3141593E+01    0.3141593E+01    0.3141593E+01    0.3141593E+01    0.3141593E+01
  0.3141593E+01    0.3141593E+01    0.3455752E+01    0.3455752E+01    0.3455752E+01    0.3455752E+01    0.3455752E+01    0.3455752E+01    0.3455752E+01    0.3455752E+01
  0.3455752E+01    0.3455752E+01    0.3455752E+01    0.3455752E+01    0.3455752E+01    0.3455752E+01    0.3455752E+01    0.3455752E+01    0.3455752E+01    0.3455752E+01
  0.3455752E+01    0.3455752E+01    0.3455752E+01    0.3769911E+01    0.3769911E+01    0.3769911E+01    0.3769911E+01    0.3769911E+01    0.3769911E+01    0.3769911E+01
  0.3769911E+01    0.3769911E+01    0.3769911E+01    0.3769911E+01    0.3769911E+01    0.3769911E+01    0.3769911E+01    0.3769911E+01    0.3769911E+01    0.3769911E+01
  0.3769911E+01    0.3769911E+01    0.3769911E+01    0.3769911E+01    0.4084071E+01    0.4084071E+01    0.4084071E+01    0.4084071E+01    0.4084071E+01    0.4084071E+01
  0.4084071E+01    0.4084071E+01    0.4084071E+01    0.4084071E+01    0.4084071E+01    0.4084071E+01    0.4084071E+01    0.4084071E+01    0.4084071E+01    0.4084071E+01
  0.4084071E+01    0.4084071E+01    0.4084071E+01    0.4084071E+01    0.4084071E+01    0.4398230E+01    0.4398230E+01    0.4398230E+01    0.4398230E+01    0.4398230E+01
  0.4398230E+01    0.4398230E+01    0.4398230E+01    0.4398230E+01    0.4398230E+01    0.4398230E+01    0.4398230E+01    0.4398230E+01    0.4398230E+01    0.4398230E+01
  0.4398230E+01    0.4398230E+01    0.4398230E+01    0.4398230E+01    0.4398230E+01    0.4398230E+01    0.4712389E+01    0.4712389E+01    0.4712389E+01    0.4712389E+01
  0.4712389E+01    0.4712389E+01    0.4712389E+01    0.4712389E+01    0.4712389E+01    0.4712389E+01    0.4712389E+01    0.4712389E+01    0.4712389E+01    0.4712389E+01
  0.4712389E+01    0.4712389E+01    0.4712389E+01    0.4712389E+01    0.4712389E+01    0.4712389E+01    0.4712389E+01    0.5026548E+01    0.5026548E+01    0.5026548E+01
  0.5026548E+01    0.5026548E+01    0.5026548E+01    0.5026548E+01    0.5026548E+01    0.5026548E+01    0.5026548E+01    0.5026548E+01    0.5026548E+01    0.5026548E+01
  0.5026548E+01    0.5026548E+01    0.5026548E+01    0.5026548E+01    0.5026548E+01    0.5026548E+01    0.5026548E+01    0.5026548E+01    0.5340708E+01    0.5340708E+01
  0.5340708E+01    0.5340708E+01    0.5340708E+01    0.5340708E+01    0.5340708E+01    0.5340708E+01    0.5340708E+01    0.5340708E+01    0.5340708E+01    0.5340708E+01
  0.5340708E+01    0.5340708E+01    0.5340708E+01    0.5340708E+01    0.5340708E+01    0.5340708E+01    0.5340708E+01    0.5340708E+01    0.5340708E+01    0.5654867E+01
  0.5654867E+01    0.5654867E+01    0.5654867E+01    0.5654867E+01    0.5654867E+01    0.5654867E+01    0.5654867E+01    0.5654867E+01    0.5654867E+01    0.5654867E+01
  0.5654867E+01    0.5654867E+01    0.5654867E+01    0.5654867E+01    0.5654867E+01    0.5654867E+01    0.5654867E+01    0.5654867E+01    0.5654867E+01    0.5654867E+01
  0.5969026E+01    0.5969026E+01    0.5969026E+01    0.5969026E+01    0.5969026E+01    0.5969026E+01    0.5969026E+01    0.5969026E+01    0.5969026E+01    0.5969026E+01
  0.5969026E+01    0.5969026E+01    0.5969026E+01    0.5969026E+01    0.5969026E+01    0.5969026E+01    0.5969026E+01    0.5969026E+01    0.5969026E+01    0.5969026E+01
  0.5969026E+01    0.6283185E+01    0.6283185E+01    0.6283185E+01    0.6283185E+01    0.6283185E+01    0.6283185E+01    0.6283185E+01    0.6283185E+01    0.6283185E+01
  0.6283185E+01    0.6283185E+01    0.6283185E+01    0.6283185E+01    0.6283185E+01    0.6283185E+01    0.6283185E+01    0.6283185E+01    0.6283185E+01    0.6283185E+01
  0.6283185E+01    0.6283185E+01   -0.9496736E-02   -0.8567425E-02   -0.6799543E-02   -0.4366116E-02   -0.1505373E-02    0.1502648E-02    0.4363434E-02    0.6796800E-02
  0.8564666E-02    0.9496567E-02    0.9498868E-02    0.8568991E-02    0.6800563E-02    0.4366755E-02    0.1505670E-02   -0.1502633E-02   -0.4363679E-02   -0.6797482E-02
 -0.8565858E-02   -0.9495692E-02   -0.2755768E-01   -0.2486002E-01   -0.1972891E-01   -0.1266658E-01   -0.4364375E-02    0.4364997E-02    0.1266703E-01    0.1972898E-01
  0.2485975E-01    0.2755819E-01    0.2755906E-01    0.2486115E-01    0.1972970E-01    0.1266721E-01    0.4364825E-02   -0.4364610E-02   -0.1266662E-01   -0.1972881E-01
 -0.2485968E-01   -0.2755695E-01   -0.4292108E-01   -0.3871921E-01   -0.3072718E-01   -0.1972730E-01   -0.6796314E-02    0.6799924E-02    0.1973051E-01    0.3072970E-01
  0.3872085E-01    0.4292210E-01    0.4292188E-01    0.3871977E-01    0.3072754E-01    0.1972769E-01    0.6796751E-02   -0.6799351E-02   -0.1972971E-01   -0.3072892E-01
 -0.3872009E-01   -0.4292091E-01   -0.5408342E-01   -0.4878851E-01   -0.3871786E-01   -0.2485717E-01   -0.8563213E-02    0.8568943E-02    0.2486232E-01    0.3872196E-01
  0.4879113E-01    0.5408439E-01    0.5408353E-01    0.4878843E-01    0.3871770E-01    0.2485718E-01    0.8563398E-02   -0.8568470E-02   -0.2486149E-01   -0.3872111E-01
 -0.4879033E-01   -0.5408350E-01   -0.5995167E-01   -0.5408219E-01   -0.4291874E-01   -0.2755405E-01   -0.9492144E-02    0.9498907E-02    0.2756013E-01    0.4292348E-01
  0.5408506E-01    0.5995243E-01    0.5995122E-01    0.5408150E-01    0.4291803E-01    0.2755355E-01    0.9491888E-02   -0.9498789E-02   -0.2755966E-01   -0.4292296E-01
 -0.5408457E-01   -0.5995196E-01   -0.5995147E-01   -0.5408201E-01   -0.4291857E-01   -0.2755393E-01   -0.9492092E-02    0.9498860E-02    0.2755993E-01    0.4292316E-01
  0.5408461E-01    0.5995181E-01    0.5995050E-01    0.5408076E-01    0.4291727E-01    0.2755285E-01    0.9491298E-02   -0.9499323E-02   -0.2756006E-01   -0.4292320E-01
 -0.5408478E-01   -0.5995214E-01   -0.5408319E-01   -0.4878807E-01   -0.3871736E-01   -0.2485674E-01   -0.8562981E-02    0.8568870E-02    0.2486188E-01    0.3872113E-01
  0.4878986E-01    0.5408265E-01    0.5408141E-01    0.4878618E-01    0.3871548E-01    0.2485510E-01    0.8561577E-02   -0.8569986E-02   -0.2486268E-01   -0.3872192E-01
 -0.4879080E-01   -0.5408373E-01   -0.4292062E-01   -0.3871843E-01   -0.3072627E-01   -0.1972644E-01   -0.6795736E-02    0.6800071E-02    0.1973015E-01    0.3072874E-01
  0.3871920E-01    0.4291947E-01    0.4291838E-01    0.3871603E-01    0.3072391E-01    0.1972426E-01    0.6793755E-02   -0.6801790E-02   -0.1973167E-01   -0.3073026E-01
 -0.3872079E-01   -0.4292111E-01   -0.2755675E-01   -0.2485879E-01   -0.1972750E-01   -0.1266522E-01   -0.4363265E-02    0.4365656E-02    0.1266708E-01    0.1972843E-01
  0.2485844E-01    0.2755497E-01    0.2755416E-01    0.2485604E-01    0.1972474E-01    0.1266262E-01    0.4360851E-02   -0.4367928E-02   -0.1266922E-01   -0.1973056E-01
 -0.2486074E-01   -0.2755748E-01   -0.9495926E-02   -0.8565956E-02   -0.6797734E-02   -0.4364234E-02   -0.1503665E-02    0.1503888E-02    0.4364105E-02    0.6796998E-02
  0.8564317E-02    0.9493196E-02    0.9492724E-02    0.8562833E-02    0.6794702E-02    0.4361397E-02    0.1500921E-02   -0.1506550E-02   -0.4366635E-02   -0.6799603E-02
 -0.8567084E-02   -0.9496067E-02    0.9494872E-02    0.8565451E-02    0.6797443E-02    0.4363930E-02    0.1503070E-02   -0.1505090E-02   -0.4366054E-02   -0.6799829E-02
 -0.8568154E-02   -0.9497869E-02   -0.9498035E-02   -0.8568610E-02   -0.6800504E-02   -0.4366897E-02   -0.1505985E-02    0.1502256E-02    0.4363237E-02    0.6796951E-02
  0.8565301E-02    0.9495141E-02    0.2755604E-01    0.2485827E-01    0.1972714E-01    0.1266482E-01    0.4362624E-02   -0.4366793E-02   -0.1266894E-01   -0.1973108E-01
 -0.2486195E-01   -0.2755932E-01   -0.2755910E-01   -0.2486133E-01   -0.1973016E-01   -0.1266775E-01   -0.4365498E-02    0.4363867E-02    0.1266599E-01    0.1972813E-01
  0.2485891E-01    0.2755625E-01    0.4291934E-01    0.3871763E-01    0.3072567E-01    0.1972589E-01    0.6795029E-02   -0.6801197E-02   -0.1973178E-01   -0.3073099E-01
 -0.3872223E-01   -0.4292313E-01   -0.4292251E-01   -0.3872056E-01   -0.3072848E-01   -0.1972858E-01   -0.6797794E-02    0.6798337E-02    0.1972894E-01    0.3072806E-01
  0.3871926E-01    0.4292028E-01    0.5408185E-01    0.4878706E-01    0.3871648E-01    0.2485591E-01    0.8562087E-02   -0.8570003E-02   -0.2486331E-01   -0.3872296E-01
 -0.4879221E-01   -0.5408539E-01   -0.5408449E-01   -0.4878955E-01   -0.3871886E-01   -0.2485833E-01   -0.8564623E-02    0.8567385E-02    0.2486056E-01    0.3872016E-01
  0.4878961E-01    0.5408312E-01    0.5995013E-01    0.5408062E-01    0.4291725E-01    0.2755265E-01    0.9490856E-02   -0.9500116E-02   -0.2756129E-01   -0.4292459E-01
 -0.5408618E-01   -0.5995357E-01   -0.5995232E-01   -0.5408265E-01   -0.4291924E-01   -0.2755468E-01   -0.9493002E-02    0.9497696E-02    0.2755872E-01    0.4292208E-01
  0.5408371E-01    0.5995124E-01    0.5994967E-01    0.5408029E-01    0.4291684E-01    0.2755221E-01    0.9490424E-02   -0.9500524E-02   -0.2756153E-01   -0.4292463E-01
 -0.5408605E-01   -0.5995312E-01   -0.5995158E-01   -0.5408183E-01   -0.4291828E-01   -0.2755368E-01   -0.9492225E-02    0.9498415E-02    0.2755934E-01    0.4292236E-01
  0.5408396E-01    0.5995150E-01    0.5408144E-01    0.4878624E-01    0.3871535E-01    0.2485463E-01    0.8560804E-02   -0.8571112E-02   -0.2486405E-01   -0.3872315E-01
 -0.4879168E-01   -0.5408408E-01   -0.5408250E-01   -0.4878706E-01   -0.3871611E-01   -0.2485565E-01   -0.8562184E-02    0.8569438E-02    0.2486207E-01    0.3872116E-01
  0.4879015E-01    0.5408320E-01    0.4291897E-01    0.3871638E-01    0.3072400E-01    0.1972398E-01    0.6793110E-02   -0.6802800E-02   -0.1973287E-01   -0.3073126E-01
 -0.3872133E-01   -0.4292108E-01   -0.4291939E-01   -0.3871659E-01   -0.3072425E-01   -0.1972447E-01   -0.6793952E-02    0.6801430E-02    0.1973119E-01    0.3072968E-01
  0.3871991E-01    0.4291994E-01    0.2755468E-01    0.2485667E-01    0.1972514E-01    0.1266262E-01    0.4360483E-02   -0.4368635E-02   -0.1267010E-01   -0.1973123E-01
 -0.2486084E-01   -0.2755657E-01   -0.2755488E-01   -0.2485637E-01   -0.1972480E-01   -0.1266251E-01   -0.4360928E-02    0.4367720E-02    0.1266895E-01    0.1972994E-01
  0.2485992E-01    0.2755637E-01    0.9493984E-02    0.8563906E-02    0.6795444E-02    0.4361777E-02    0.1500981E-02   -0.1506812E-02   -0.4367061E-02   -0.6799935E-02
 -0.8566954E-02   -0.9494565E-02   -0.9493063E-02   -0.8562934E-02   -0.6794507E-02   -0.4361334E-02   -0.1501080E-02    0.1506501E-02    0.4366218E-02    0.6798918E-02
  0.8566768E-02    0.9495613E-02    0.9491928E-02    0.2755208E-01    0.4291392E-01    0.5407329E-01    0.5993782E-01    0.5993338E-01    0.5406001E-01    0.4289319E-01
  0.2752711E-01    0.9469431E-02   -0.9525959E-02   -0.2758562E-01   -0.4294597E-01   -0.5410365E-01   -0.5996743E-01   -0.5996347E-01   -0.5409113E-01   -0.4292593E-01
 -0.2756087E-01   -0.9498419E-02    0.8562502E-02    0.2485461E-01    0.3871240E-01    0.4877909E-01    0.5406914E-01    0.5406465E-01    0.4876595E-01    0.3869200E-01
  0.2482963E-01    0.8536653E-02   -0.8596249E-02   -0.2488770E-01   -0.3874396E-01   -0.4880919E-01   -0.5409863E-01   -0.5409446E-01   -0.4879686E-01   -0.3872451E-01
 -0.2486298E-01   -0.8568896E-02    0.6794194E-02    0.1972336E-01    0.3072046E-01    0.3870879E-01    0.4290625E-01    0.4290188E-01    0.3869607E-01    0.3070074E-01
  0.1969890E-01    0.6767725E-02   -0.6827905E-02   -0.1975617E-01   -0.3075183E-01   -0.3873888E-01   -0.4293579E-01   -0.4293175E-01   -0.3872704E-01   -0.3073313E-01
 -0.1973231E-01   -0.6801263E-02    0.4360134E-02    0.1266068E-01    0.1972044E-01    0.2484822E-01    0.2754193E-01    0.2753778E-01    0.2483621E-01    0.1970183E-01
  0.1263742E-01    0.4334720E-02   -0.4393695E-02   -0.1269329E-01   -0.1975175E-01   -0.2487842E-01   -0.2757169E-01   -0.2756788E-01   -0.2486731E-01   -0.1973424E-01
 -0.1267084E-01   -0.4368449E-02    0.1498582E-02    0.4357902E-02    0.6789145E-02    0.8554199E-02    0.9480155E-02    0.9476334E-02    0.8543128E-02    0.6771975E-02
  0.4336456E-02    0.1475135E-02   -0.1531928E-02   -0.4390341E-02   -0.6820437E-02   -0.8584606E-02   -0.9510232E-02   -0.9506719E-02   -0.8574436E-02   -0.6804415E-02
 -0.4369744E-02   -0.1508788E-02   -0.1510299E-02   -0.4372225E-02   -0.6807670E-02   -0.8578372E-02   -0.9511065E-02   -0.9514502E-02   -0.8588352E-02   -0.6823145E-02
 -0.4391534E-02   -0.1531451E-02    0.1477210E-02    0.4339908E-02    0.6776260E-02    0.8547659E-02    0.9480612E-02    0.9483728E-02    0.8556799E-02    0.6790687E-02
  0.4358335E-02    0.1497976E-02   -0.4371994E-02   -0.1267507E-01   -0.1973898E-01   -0.2487232E-01   -0.2757266E-01   -0.2757574E-01   -0.2488119E-01   -0.1975271E-01
 -0.1269223E-01   -0.4390745E-02    0.4339158E-02    0.1264285E-01    0.1970748E-01    0.2484138E-01    0.2754185E-01    0.2754465E-01    0.2484949E-01    0.1972024E-01
  0.1265920E-01    0.4357635E-02   -0.6806371E-02   -0.1973792E-01   -0.3073897E-01   -0.3873269E-01   -0.4293668E-01   -0.4293939E-01   -0.3874054E-01   -0.3075112E-01
 -0.1975307E-01   -0.6822880E-02    0.6773710E-02    0.1970580E-01    0.3070744E-01    0.3870154E-01    0.4290560E-01    0.4290810E-01    0.3870871E-01    0.3071869E-01
  0.1972026E-01    0.6789945E-02   -0.8575084E-02   -0.2486944E-01   -0.3873097E-01   -0.4880287E-01   -0.5409923E-01   -0.5410163E-01   -0.4880984E-01   -0.3874179E-01
 -0.2488293E-01   -0.8589865E-02    0.8542583E-02    0.2483735E-01    0.3869929E-01    0.4877146E-01    0.5406791E-01    0.5407009E-01    0.4877789E-01    0.3870942E-01
  0.2485021E-01    0.8557048E-02   -0.9505110E-02   -0.2756732E-01   -0.4293263E-01   -0.5409699E-01   -0.5996758E-01   -0.5996978E-01   -0.5410334E-01   -0.4294245E-01
 -0.2757963E-01   -0.9518603E-02    0.9472702E-02    0.2753520E-01    0.4290084E-01    0.5406546E-01    0.5993608E-01    0.5993812E-01    0.5407140E-01    0.4291014E-01
  0.2754707E-01    0.9486119E-02   -0.9505397E-02   -0.2756746E-01   -0.4293264E-01   -0.5409685E-01   -0.5996734E-01   -0.5996941E-01   -0.5410285E-01   -0.4294197E-01
 -0.2757914E-01   -0.9518161E-02    0.9472971E-02    0.2753534E-01    0.4290084E-01    0.5406524E-01    0.5993577E-01    0.5993777E-01    0.5407093E-01    0.4290972E-01
  0.2754674E-01    0.9485689E-02   -0.8575851E-02   -0.2486994E-01   -0.3873112E-01   -0.4880263E-01   -0.5409860E-01   -0.5410064E-01   -0.4880859E-01   -0.3874040E-01
 -0.2488156E-01   -0.8588708E-02    0.8543386E-02    0.2483771E-01    0.3869914E-01    0.4877087E-01    0.5406698E-01    0.5406892E-01    0.4877663E-01    0.3870821E-01
  0.2484910E-01    0.8556083E-02   -0.6807552E-02   -0.1973873E-01   -0.3073926E-01   -0.3873239E-01   -0.4293573E-01   -0.4293789E-01   -0.3873861E-01   -0.3074893E-01
 -0.1975094E-01   -0.6821079E-02    0.6775009E-02    0.1970635E-01    0.3070720E-01    0.3870065E-01    0.4290410E-01    0.4290622E-01    0.3870678E-01    0.3071674E-01
  0.1971846E-01    0.6788566E-02   -0.4373552E-02   -0.1267606E-01   -0.1973929E-01   -0.2487186E-01   -0.2757145E-01   -0.2757380E-01   -0.2487867E-01   -0.1974993E-01
 -0.1268946E-01   -0.4388331E-02    0.4340814E-02    0.1264362E-01    0.1970729E-01    0.2484019E-01    0.2753998E-01    0.2754235E-01    0.2484691E-01    0.1971775E-01
  0.1265698E-01    0.4355589E-02   -0.1512078E-02   -0.4373424E-02   -0.6808134E-02   -0.8578006E-02   -0.9509836E-02   -0.9512457E-02   -0.8585677E-02   -0.6820102E-02
 -0.4388480E-02   -0.1528843E-02    0.1479055E-02    0.4340762E-02    0.6775959E-02    0.8546337E-02    0.9478517E-02    0.9481052E-02    0.8553914E-02    0.6787896E-02
  0.4355714E-02    0.1495704E-02    0.1496774E-02    0.4356657E-02    0.6788613E-02    0.8554483E-02    0.9481326E-02    0.9478295E-02    0.8545736E-02    0.6774989E-02
  0.4339411E-02    0.1477657E-02   -0.1530083E-02   -0.4389552E-02   -0.6820776E-02   -0.8585908E-02   -0.9512435E-02   -0.9509469E-02   -0.8577306E-02   -0.6807346E-02
 -0.4372458E-02   -0.1510922E-02    0.4358563E-02    0.1265968E-01    0.1972008E-01    0.2484858E-01    0.2754301E-01    0.2753957E-01    0.2483859E-01    0.1970444E-01
  0.1263994E-01    0.4336795E-02   -0.4392251E-02   -0.1269264E-01   -0.1975201E-01   -0.2487970E-01   -0.2757368E-01   -0.2757027E-01   -0.2487004E-01   -0.1973691E-01
 -0.1267322E-01   -0.4370700E-02    0.6793126E-02    0.1972263E-01    0.3072017E-01    0.3870901E-01    0.4290705E-01    0.4290322E-01    0.3869778E-01    0.3070256E-01
  0.1970038E-01    0.6768357E-02   -0.6827252E-02   -0.1975583E-01   -0.3075218E-01   -0.3873991E-01   -0.4293731E-01   -0.4293371E-01   -0.3872916E-01   -0.3073515E-01
 -0.1973426E-01   -0.6802963E-02    0.8562057E-02    0.2485436E-01    0.3871236E-01    0.4877935E-01    0.5406978E-01    0.5406552E-01    0.4876698E-01    0.3869298E-01
  0.2482962E-01    0.8534519E-02   -0.8596614E-02   -0.2488783E-01   -0.3874423E-01   -0.4880972E-01   -0.5409967E-01   -0.5409558E-01   -0.4879799E-01   -0.3872588E-01
 -0.2486402E-01   -0.8569322E-02    0.9492261E-02    0.2755258E-01    0.4291437E-01    0.5407382E-01    0.5993847E-01    0.5993388E-01    0.5406057E-01    0.4289356E-01
  0.2752571E-01    0.9461988E-02   -0.9527215E-02   -0.2758599E-01   -0.4294584E-01   -0.5410356E-01   -0.5996784E-01   -0.5996335E-01   -0.5409115E-01   -0.4292668E-01
 -0.2756067E-01   -0.9497921E-02   -0.7618788E-04    0.6970980E-04    0.3016132E-03    0.5552426E-03    0.7404098E-03    0.7307837E-03    0.5771689E-03    0.3457904E-03
  0.6948934E-04   -0.6861992E-04   -0.2111001E-04    0.8578541E-04    0.3497936E-03    0.6639578E-03    0.7678524E-03    0.7476828E-03    0.6349446E-03    0.3100273E-03
  0.2173538E-05   -0.1104430E-03    0.7748213E-04    0.2416874E-03    0.4925154E-03    0.7528592E-03    0.9239360E-03    0.9225539E-03    0.7707513E-03    0.5187004E-03
  0.2502175E-03    0.1067642E-03    0.1356065E-03    0.2702678E-03    0.5223884E-03    0.8094082E-03    0.9510262E-03    0.9146906E-03    0.7651777E-03    0.4897372E-03
  0.1639796E-03   -0.1479547E-05    0.3041951E-03    0.4906031E-03    0.7656952E-03    0.1021416E-02    0.1190854E-02    0.1205421E-02    0.1039654E-02    0.7876622E-03
  0.5336159E-03    0.3617409E-03    0.3877313E-03    0.5545630E-03    0.7765764E-03    0.1052700E-02    0.1230097E-02    0.1166567E-02    0.1003426E-02    0.7659190E-03
  0.4072349E-03    0.2177307E-03    0.5599612E-03    0.7474524E-03    0.1016245E-02    0.1272756E-02    0.1457827E-02    0.1461741E-02    0.1294700E-02    0.1062042E-02
  0.7880849E-03    0.6114580E-03    0.6596965E-03    0.8084040E-03    0.1024036E-02    0.1324732E-02    0.1483932E-02    0.1412707E-02    0.1278637E-02    0.1017492E-02