 TITLE = "NAVIER-STOKES OUTPUT"
 VARIABLES = "X", "Y", "U", "V", "P", "Pex", "Vor"
 ZONE I =   21, J =   21, DATAPACKING = BLOCK, VARLOCATION=(3=CELLCENTERED, 4=CELLCENTERED,5=CELLCENTERED,6=CELLCENTERED, 7=CELLCENTERED)
  0.0000000E+00    0.3141593E+00    0.6283185E+00    0.9424778E+00    0.1256637E+01    0.1570796E+01    0.1884956E+01    0.2199115E+01    0.2513274E+01    0.2827433E+01
  0.3141593E+01    0.3455752E+01    0.3769911E+01    0.4084071E+01    0.4398230E+01    0.4712389E+01    0.5026548E+01    0.5340708E+01    0.5654867E+01    0.5969026E+01
  0.6283185E+01    0.0000000E+00    0.3141593E+00    0.6283185E+00    0.9424778E+00    0.1256637E+01    0.1570796E+01    0.1884956E+01    0.2199115E+01    0.2513274E+01
  0.2827433E+01    0.3141593E+01    0.3455752E+01    0.3769911E+01    0.4084071E+01    0.4398230E+01    0.4712389E+01    0.5026548E+01    0.5340708E+01    0.5654867E+01
  0.5969026E+01    0.6283185E+01    0.0000000E+00    0.3141593E+00    0.6283185E+00    0.9424778E+00    0.1256637E+01    0.1570796E+01    0.1884956E+01    0.2199115E+01
  0.2513274E+01    0.2827433E+01    0.3141593E+01    0.3455752E+01    0.3769911E+01    0.4084071E+01    0.4398230E+01    0.4712389E+01    0.5026548E+01    0.5340708E+01
  0.5654867E+01    0.5969026E+01    0.6283185E+01    0.0000000E+00    0.3141593E+00    0.6283185E+00    0.9424778E+00    0.1256637E+01    0.1570796E+01    0.1884956E+01
  0.2199115E+01    0.2513274E+01    0.2827433E+01    0.3141593E+01    0.3455752E+01    0.3769911E+01    0.4084071E+01    0.4398230E+01    0.4712389E+01    0.5026548E+01
  0.5340708E+01    0.5654867E+01    0.5969026E+01    0.6283185E+01    0.0000000E+00    0.3141593E+00    0.6283185E+00    0.9424778E+00    0.1256637E+01    0.1570796E+01
  0.1884956E+01    0.2199115E+01    0.2513274E+01    0.2827433E+01    0.3141593E+01    0.3455752E+01    0.3769911E+01    0.4084071E+01    0.4398230E+01    0.4712389E+01
  0.5026548E+01    0.5340708E+01    0.5654867E+01    0.5969026E+01    0.6283185E+01    0.0000000E+00    0.3141593E+00    0.6283185E+00    0.9424778E+00    0.1256637E+01
  0.1570796E+01    0.1884956E+01    0.2199115E+01    0.2513274E+01    0.2827433E+01    0.3141593E+01    0.3455752E+01    0.3769911E+01    0.4084071E+01    0.4398230E+01
  0.4712389E+01    0.5026548E+01    0.5340708E+01    0.5654867E+01    0.5969026E+01    0.6283185E+01    0.0000000E+00    0.3141593E+00    0.6283185E+00    0.9424778E+00
  0.1256637E+01    0.1570796E+01    0.1884956E+01    0.2199115E+01    0.2513274E+01    0.2827433E+01    0.3141593E+01    0.3455752E+01    0.3769911E+01    0.4084071E+01
  0.4398230E+01    0.4712389E+01    0.5026548E+01    0.5340708E+01    0.5654867E+01    0.5969026E+01    0.6283185E+01    0.0000000E+00    0.3141593E+00    0.6283185E+00
  0.9424778E+00    0.1256637E+01    0.1570796E+01    0.1884956E+01    0.2199115E+01    0.2513274E+01    0.2827433E+01    0.3141593E+01    0.3455752E+01    0.3769911E+01
  0.4084071E+01    0.4398230E+01    0.4712389E+01    0.5026548E+01    0.5340708E+01    0.5654867E+01    0.5969026E+01    0.6283185E+01    0.0000000E+00    0.3141593E+00
  0.6283185E+00    0.9424778E+00    0.1256637E+01    0.1570796E+01    0.1884956E+01    0.2199115E+01    0.2513274E+01    0.2827433E+01    0.3141593E+01    0.3455752E+01
  0.3769911E+01    0.4084071E+01    0.4398230E+01    0.4712389E+01    0.5026548E+01    0.5340708E+01    0.5654867E+01    0.5969026E+01    0.6283185E+01    0.0000000E+00
  0.3141593E+00    0.6283185E+00    0.9424778E+00    0.1256637E+01    0.1570796E+01    0.1884956E+01    0.2199115E+01    0.2513274E+01    0.2827433E+01    0.3141593E+01
  0.3455752E+01    0.3769911E+01    0.4084071E+01    0.4398230E+01    0.4712389E+01    0.5026548E+01    0.5340708E+01    0.5654867E+01    0.5969026E+01    0.6283185E+01
  0.0000000E+00    0.3141593E+00    0.6283185E+00    0.9424778E+00    0.1256637E+01    0.1570796E+01    0.1884956E+01    0.2199115E+01    0.2513274E+01    0.2827433E+01
  0.3141593E+01    0.3455752E+01    0.3769911E+01    0.4084071E+01    0.4398230E+01    0.4712389E+01    0.5026548E+01    0.5340708E+01    0.5654867E+01    0.5969026E+01
  0.6283185E+01    0.0000000E+00    0.3141593E+00    0.6283185E+00    0.9424778E+00    0.1256637E+01    0.1570796E+01    0.1884956E+01    0.2199115E+01    0.2513274E+01
  0.2827433E+01    0.3141593E+01    0.3455752E+01    0.3769911E+01    0.4084071E+01    0.4398230E+01    0.4712389E+01    0.5026548E+01    0.5340708E+01    0.5654867E+01
  0.5969026E+01    0.6283185E+01    0.0000000E+00    0.3141593E+00    0.6283185E+00    0.9424778E+00    0.1256637E+01    0.1570796E+01    0.1884956E+01    0.2199115E+01
  0.2513274E+01    0.2827433E+01    0.3141593E+01    0.3455752E+01    0.3769911E+01    0.4084071E+01    0.4398230E+01    0.4712389E+01    0.5026548E+01    0.5340708E+01
  0.5654867E+01    0.5969026E+01    0.6283185E+01    0.0000000E+00    0.3141593E+00    0.6283185E+00    0.9424778E+00    0.1256637E+01    0.1570796E+01    0.1884956E+01
  0.2199115E+01    0.2513274E+01    0.2827433E+01    0.3141593E+01    0.3455752E+01    0.3769911E+01    0.4084071E+01    0.4398230E+01    0.4712389E+01    0.5026548E+01
  0.5340708E+01    0.5654867E+01    0.5969026E+01    0.6283185E+01    0.0000000E+00    0.3141593E+00    0.6283185E+00    0.9424778E+00    0.1256637E+01    0.1570796E+01
  0.1884956E+01    0.2199115E+01    0.2513274E+01    0.2827433E+01    0.3141593E+01    0.3455752E+01    0.3769911E+01    0.4084071E+01    0.4398230E+01    0.4712389E+01
  0.5026548E+01    0.5340708E+01    0.5654867E+01    0.5969026E+01    0.6283185E+01    0.0000000E+00    0.3141593E+00    0.6283185E+00    0.9424778E+00    0.1256637E+01
  0.1570796E+01    0.1884956E+01    0.2199115E+01    0.2513274E+01    0.2827433E+01    0.3141593E+01    0.3455752E+01    0.3769911E+01    0.4084071E+01    0.4398230E+01
  0.4712389E+01    0.5026548E+01    0.5340708E+01    0.5654867E+01    0.5969026E+01    0.6283185E+01    0.0000000E+00    0.3141593E+00    0.6283185E+00    0.9424778E+00
  0.1256637E+01    0.1570796E+01    0.1884956E+01    0.2199115E+01    0.2513274E+01    0.2827433E+01    0.3141593E+01    0.3455752E+01    0.3769911E+01    0.4084071E+01
  0.4398230E+01    0.4712389E+01    0.5026548E+01    0.5340708E+01    0.5654867E+01    0.5969026E+01    0.6283185E+01    0.0000000E+00    0.3141593E+00    0.6283185E+00
  0.9424778E+00    0.1256637E+01    0.1570796E+01    0.1884956E+01    0.2199115E+01    0.2513274E+01    0.2827433E+01    0.3141593E+01    0.3455752E+01    0.3769911E+01
  0.4084071E+01    0.4398230E+01    0.4712389E+01    0.5026548E+01    0.5340708E+01    0.5654867E+01    0.5969026E+01    0.6283185E+01    0.0000000E+00    0.3141593E+00
  0.6283185E+00    0.9424778E+00    0.1256637E+01    0.1570796E+01    0.1884956E+01    0.2199115E+01    0.2513274E+01    0.2827433E+01    0.3141593E+01    0.3455752E+01
  0.3769911E+01    0.4084071E+01    0.4398230E+01    0.4712389E+01    0.5026548E+01    0.5340708E+01    0.5654867E+01    0.5969026E+01    0.6283185E+01    0.0000000E+00
  0.3141593E+00    0.6283185E+00    0.9424778E+00    0.1256637E+01    0.1570796E+01    0.1884956E+01    0.2199115E+01    0.2513274E+01    0.2827433E+01    0.3141593E+01
  0.3455752E+01    0.3769911E+01    0.4084071E+01    0.4398230E+01    0.4712389E+01    0.5026548E+01    0.5340708E+01    0.5654867E+01    0.5969026E+01    0.6283185E+01
  0.0000000E+00    0.3141593E+00    0.6283185E+00    0.9424778E+00    0.1256637E+01    0.1570796E+01    0.1884956E+01    0.2199115E+01    0.2513274E+01    0.2827433E+01
  0.3141593E+01    0.3455752E+01    0.3769911E+01    0.4084071E+01    0.4398230E+01    0.4712389E+01    0.5026548E+01    0.5340708E+01    0.5654867E+01    0.5969026E+01
  0.6283185E+01    0.0000000E+00    0.0000000E+00    0.0000000E+00    0.0000000E+00    0.0000000E+00    0.0000000E+00    0.0000000E+00    0.0000000E+00    0.0000000E+00
  0.0000000E+00    0.0000000E+00    0.0000000E+00    0.0000000E+00    0.0000000E+00    0.0000000E+00    0.0000000E+00    0.0000000E+00    0.0000000E+00    0.0000000E+00
  0.0000000E+00    0.0000000E+00    0.3141593E+00    0.3141593E+00    0.3141593E+00    0.3141593E+00    0.3141593E+00    0.3141593E+00    0.3141593E+00    0.3141593E+00
  0.3141593E+00    0.3141593E+00    0.3141593E+00    0.3141593E+00    0.3141593E+00    0.3141593E+00    0.3141593E+00    0.3141593E+00    0.3141593E+00    0.3141593E+00
  0.3141593E+00    0.3141593E+00    0.3141593E+00    0.6283185E+00    0.6283185E+00    0.6283185E+00    0.6283185E+00    0.6283185E+00    0.6283185E+00    0.6283185E+00
  0.6283185E+00    0.6283185E+00    0.6283185E+00    0.6283185E+00    0.6283185E+00    0.6283185E+00    0.6283185E+00    0.6283185E+00    0.6283185E+00    0.6283185E+00
  0.6283185E+00    0.6283185E+00    0.6283185E+00    0.6283185E+00    0.9424778E+00    0.9424778E+00    0.9424778E+00    0.9424778E+00    0.9424778E+00    0.9424778E+00
  0.9424778E+00    0.9424778E+00    0.9424778E+00    0.9424778E+00    0.9424778E+00    0.9424778E+00    0.9424778E+00    0.9424778E+00    0.9424778E+00    0.9424778E+00
  0.9424778E+00    0.9424778E+00    0.9424778E+00    0.9424778E+00    0.9424778E+00    0.1256637E+01    0.1256637E+01    0.1256637E+01    0.1256637E+01    0.1256637E+01
  0.1256637E+01    0.1256637E+01    0.1256637E+01    0.1256637E+01    0.1256637E+01    0.1256637E+01    0.1256637E+01    0.1256637E+01    0.1256637E+01    0.1256637E+01
  0.1256637E+01    0.1256637E+01    0.1256637E+01    0.1256637E+01    0.1256637E+01    0.1256637E+01    0.1570796E+01    0.1570796E+01    0.1570796E+01    0.1570796E+01
  0.1570796E+01    0.1570796E+01    0.1570796E+01    0.1570796E+01    0.1570796E+01    0.1570796E+01    0.1570796E+01    0.1570796E+01    0.1570796E+01    0.1570796E+01
  0.1570796E+01    0.1570796E+01    0.1570796E+01    0.1570796E+01    0.1570796E+01    0.1570796E+01    0.1570796E+01    0.1884956E+01    0.1884956E+01    0.1884956E+01
  0.1884956E+01    0.1884956E+01    0.1884956E+01    0.1884956E+01    0.1884956E+01    0.1884956E+01    0.1884956E+01    0.1884956E+01    0.1884956E+01    0.1884956E+01
  0.1884956E+01    0.1884956E+01    0.1884956E+01    0.1884956E+01    0.1884956E+01    0.1884956E+01    0.1884956E+01    0.1884956E+01    0.2199115E+01    0.2199115E+01
  0.2199115E+01    0.2199115E+01    0.2199115E+01    0.2199115E+01    0.2199115E+01    0.2199115E+01    0.2199115E+01    0.2199115E+01    0.2199115E+01    0.2199115E+01
  0.2199115E+01    0.2199115E+01    0.2199115E+01    0.2199115E+01    0.2199115E+01    0.2199115E+01    0.2199115E+01    0.2199115E+01    0.2199115E+01    0.2513274E+01
  0.2513274E+01    0.2513274E+01    0.2513274E+01    0.2513274E+01    0.2513274E+01    0.2513274E+01    0.2513274E+01    0.2513274E+01    0.2513274E+01    0.2513274E+01
  0.2513274E+01    0.2513274E+01    0.2513274E+01    0.2513274E+01    0.2513274E+01    0.2513274E+01    0.2513274E+01    0.2513274E+01    0.2513274E+01    0.2513274E+01
  0.2827433E+01    0.2827433E+01    0.2827433E+01    0.2827433E+01    0.2827433E+01    0.2827433E+01    0.2827433E+01    0.2827433E+01    0.2827433E+01    0.2827433E+01
  0.2827433E+01    0.2827433E+01    0.2827433E+01    0.2827433E+01    0.2827433E+01    0.2827433E+01    0.2827433E+01    0.2827433E+01    0.2827433E+01    0.2827433E+01
  0.2827433E+01    0.3141593E+01    0.3141593E+01    0.3141593E+01    0.3141593E+01    0.3141593E+01    0.3141593E+01    0.3141593E+01    0.3141593E+01    0.3141593E+01
  0.3141593E+01    0.3141593E+01    0.3141593E+01    0.3141593E+01    0.3141593E+01    0.3141593E+01    0.3141593E+01    0.3141593E+01    0.3141593E+01    0.3141593E+01
  0.3141593E+01    0.3141593E+01    0.3455752E+01    0.3455752E+01    0.3455752E+01    0.3455752E+01    0.3455752E+01    0.3455752E+01    0.3455752E+01    0.3455752E+01
  0.3455752E+01    0.3455752E+01    0.3455752E+01    0.3455752E+01    0.3455752E+01    0.3455752E+01    0.3455752E+01    0.3455752E+01    0.3455752E+01    0.3455752E+01
  0.3455752E+01    0.3455752E+01    0.3455752E+01    0.3769911E+01    0.3769911E+01    0.3769911E+01    0.3769911E+01    0.3769911E+01    0.3769911E+01    0.3769911E+01
  0.3769911E+01    0.3769911E+01    0.3769911E+01    0.3769911E+01    0.3769911E+01    0.3769911E+01    0.3769911E+01    0.3769911E+01    0.3769911E+01    0.3769911E+01
  0.3769911E+01    0.3769911E+01    0.3769911E+01    0.3769911E+01    0.4084071E+01    0.4084071E+01    0.4084071E+01    0.4084071E+01    0.4084071E+01    0.4084071E+01
  0.4084071E+01    0.4084071E+01    0.4084071E+01    0.4084071E+01    0.4084071E+01    0.4084071E+01    0.4084071E+01    0.4084071E+01    0.4084071E+01    0.4084071E+01
  0.4084071E+01    0.4084071E+01    0.4084071E+01    0.4084071E+01    0.4084071E+01    0.4398230E+01    0.4398230E+01    0.4398230E+01    0.4398230E+01    0.4398230E+01
  0.4398230E+01    0.4398230E+01    0.4398230E+01    0.4398230E+01    0.4398230E+01    0.4398230E+01    0.4398230E+01    0.4398230E+01    0.4398230E+01    0.4398230E+01
  0.4398230E+01    0.4398230E+01    0.4398230E+01    0.4398230E+01    0.4398230E+01    0.4398230E+01    0.4712389E+01    0.4712389E+01    0.4712389E+01    0.4712389E+01
  0.4712389E+01    0.4712389E+01    0.4712389E+01    0.4712389E+01    0.4712389E+01    0.4712389E+01    0.4712389E+01    0.4712389E+01    0.4712389E+01    0.4712389E+01
  0.4712389E+01    0.4712389E+01    0.4712389E+01    0.4712389E+01    0.4712389E+01    0.4712389E+01    0.4712389E+01    0.5026548E+01    0.5026548E+01    0.5026548E+01
  0.5026548E+01    0.5026548E+01    0.5026548E+01    0.5026548E+01    0.5026548E+01    0.5026548E+01    0.5026548E+01    0.5026548E+01    0.5026548E+01    0.5026548E+01
  0.5026548E+01    0.5026548E+01    0.5026548E+01    0.5026548E+01    0.5026548E+01    0.5026548E+01    0.5026548E+01    0.5026548E+01    0.5340708E+01    0.5340708E+01
  0.5340708E+01    0.5340708E+01    0.5340708E+01    0.5340708E+01    0.5340708E+01    0.5340708E+01    0.5340708E+01    0.5340708E+01    0.5340708E+01    0.5340708E+01
  0.5340708E+01    0.5340708E+01    0.5340708E+01    0.5340708E+01    0.5340708E+01    0.5340708E+01    0.5340708E+01    0.5340708E+01    0.5340708E+01    0.5654867E+01
  0.5654867E+01    0.5654867E+01    0.5654867E+01    0.5654867E+01    0.5654867E+01    0.5654867E+01    0.5654867E+01    0.5654867E+01    0.5654867E+01    0.5654867E+01
  0.5654867E+01    0.5654867E+01    0.5654867E+01    0.5654867E+01    0.5654867E+01    0.5654867E+01    0.5654867E+01    0.5654867E+01    0.5654867E+01    0.5654867E+01
  0.5969026E+01    0.5969026E+01    0.5969026E+01    0.5969026E+01    0.5969026E+01    0.5969026E+01    0.5969026E+01    0.5969026E+01    0.5969026E+01    0.5969026E+01
  0.5969026E+01    0.5969026E+01    0.5969026E+01    0.5969026E+01    0.5969026E+01    0.5969026E+01    0.5969026E+01    0.5969026E+01    0.5969026E+01    0.5969026E+01
  0.5969026E+01    0.6283185E+01    0.6283185E+01    0.6283185E+01    0.6283185E+01    0.6283185E+01    0.6283185E+01    0.6283185E+01    0.6283185E+01    0.6283185E+01
  0.6283185E+01    0.6283185E+01    0.6283185E+01    0.6283185E+01    0.6283185E+01    0.6283185E+01    0.6283185E+01    0.6283185E+01    0.6283185E+01    0.6283185E+01
  0.6283185E+01    0.6283185E+01   -0.6249519E-01   -0.5637489E-01   -0.4473449E-01   -0.2871347E-01   -0.9879990E-02    0.9924162E-02    0.2876284E-01    0.4479448E-01
  0.5644704E-01    0.6250844E-01    0.6244960E-01    0.5634423E-01    0.4471953E-01    0.2870770E-01    0.9881262E-02   -0.9914755E-02   -0.2874471E-01   -0.4476176E-01
 -0.5639740E-01   -0.6251692E-01   -0.1813826E+00   -0.1636240E+00   -0.1298466E+00   -0.8335603E-01   -0.2870249E-01    0.2876569E-01    0.8342419E-01    0.1299208E+00
  0.1636930E+00    0.1814033E+00    0.1813552E+00    0.1635929E+00    0.1298253E+00    0.8334621E-01    0.2870444E-01   -0.2875079E-01   -0.8339571E-01   -0.1298791E+00
 -0.1636506E+00   -0.1814055E+00   -0.2825144E+00   -0.2548563E+00   -0.2022483E+00   -0.1298393E+00   -0.4471675E-01    0.4478778E-01    0.1299124E+00    0.2023207E+00
  0.2549159E+00    0.2825391E+00    0.2825043E+00    0.2548345E+00    0.2022292E+00    0.1298294E+00    0.4471883E-01   -0.4477226E-01   -0.1298842E+00   -0.2022844E+00
 -0.2548856E+00   -0.2825388E+00   -0.3559934E+00   -0.3211421E+00   -0.2548527E+00   -0.1636136E+00   -0.5635514E-01    0.5642341E-01    0.1636812E+00    0.2549157E+00
  0.3211910E+00    0.3560165E+00    0.3559918E+00    0.3211290E+00    0.2548387E+00    0.1636053E+00    0.5635658E-01   -0.5641095E-01   -0.1636593E+00   -0.2548898E+00
 -0.3211720E+00   -0.3560180E+00   -0.3946247E+00   -0.3559916E+00   -0.2825099E+00   -0.1813718E+00   -0.6247691E-01    0.6253621E-01    0.1814291E+00    0.2825612E+00
  0.3560303E+00    0.3946439E+00    0.3946265E+00    0.3559846E+00    0.2825006E+00    0.1813655E+00    0.6247721E-01   -0.6252825E-01   -0.1814150E+00   -0.2825454E+00
 -0.3560201E+00   -0.3946465E+00   -0.3946244E+00   -0.3559925E+00   -0.2825118E+00   -0.1813748E+00   -0.6248141E-01    0.6252973E-01    0.1814207E+00    0.2825519E+00
  0.3560227E+00    0.3946412E+00    0.3946289E+00    0.3559897E+00    0.2825061E+00    0.1813701E+00    0.6248054E-01   -0.6252597E-01   -0.1814135E+00   -0.2825445E+00
 -0.3560194E+00   -0.3946460E+00   -0.3559960E+00   -0.3211457E+00   -0.2548581E+00   -0.1636217E+00   -0.5636748E-01    0.5640549E-01    0.1636574E+00    0.2548888E+00
  0.3211686E+00    0.3560089E+00    0.3560003E+00    0.3211449E+00    0.2548547E+00    0.1636183E+00    0.5636581E-01   -0.5640485E-01   -0.1636554E+00   -0.2548875E+00
 -0.3211708E+00   -0.3560174E+00   -0.2825195E+00   -0.2548616E+00   -0.2022554E+00   -0.1298502E+00   -0.4473338E-01    0.4476297E-01    0.1298778E+00    0.2022789E+00
  0.2548789E+00    0.2825289E+00    0.2825228E+00    0.2548618E+00    0.2022537E+00    0.1298478E+00    0.4473146E-01   -0.4476421E-01   -0.1298789E+00   -0.2022812E+00
 -0.2548838E+00   -0.2825376E+00   -0.1813844E+00   -0.1636277E+00   -0.1298528E+00   -0.8336610E-01   -0.2871818E-01    0.2874138E-01    0.8338773E-01    0.1298713E+00
  0.1636419E+00    0.1813937E+00    0.1813893E+00    0.1636295E+00    0.1298526E+00    0.8336483E-01    0.2871647E-01   -0.2874338E-01   -0.8339045E-01   -0.1298755E+00
 -0.1636481E+00   -0.1814025E+00   -0.6249510E-01   -0.5637629E-01   -0.4473811E-01   -0.2871998E-01   -0.9890014E-02    0.9908492E-02    0.2873723E-01    0.4475290E-01
  0.5638780E-01    0.6250294E-01    0.6249973E-01    0.5637876E-01    0.4473902E-01    0.2871968E-01    0.9888842E-02   -0.9910542E-02   -0.2874063E-01   -0.4475808E-01
 -0.5639532E-01   -0.6251364E-01    0.6251184E-01    0.5639447E-01    0.4475701E-01    0.2873876E-01    0.9907759E-02   -0.9892778E-02   -0.2872480E-01   -0.4474494E-01
 -0.5638508E-01   -0.6250589E-01   -0.6250814E-01   -0.5639163E-01   -0.4475526E-01   -0.2873811E-01   -0.9908197E-02    0.9891002E-02    0.2872141E-01    0.4473972E-01
  0.5637781E-01    0.6249668E-01    0.1814037E+00    0.1636470E+00    0.1298723E+00    0.8338555E-01    0.2873681E-01   -0.2872461E-01   -0.8337403E-01   -0.1298621E+00
 -0.1636382E+00   -0.1813961E+00   -0.1813977E+00   -0.1636428E+00   -0.1298695E+00   -0.8338392E-01   -0.2873659E-01    0.2872327E-01    0.8337088E-01    0.1298569E+00
  0.1636314E+00    0.1813881E+00    0.2825367E+00    0.2548804E+00    0.2022754E+00    0.1298707E+00    0.4475368E-01   -0.4474392E-01   -0.1298615E+00   -0.2022672E+00
 -0.2548732E+00   -0.2825302E+00   -0.2825312E+00   -0.2548760E+00   -0.2022719E+00   -0.1298685E+00   -0.4475289E-01    0.4474290E-01    0.1298582E+00    0.2022617E+00
  0.2548654E+00    0.2825197E+00    0.3560126E+00    0.3211648E+00    0.2548790E+00    0.1636440E+00    0.5639039E-01   -0.5638297E-01   -0.1636370E+00   -0.2548729E+00
 -0.3211596E+00   -0.3560087E+00   -0.3560090E+00   -0.3211606E+00   -0.2548752E+00   -0.1636411E+00   -0.5638921E-01    0.5638188E-01    0.1636335E+00    0.2548670E+00
  0.3211518E+00    0.3559997E+00    0.3946448E+00    0.3560137E+00    0.2825345E+00    0.1813994E+00    0.6250773E-01   -0.6250260E-01   -0.1813946E+00   -0.2825301E+00
 -0.3560091E+00   -0.3946389E+00   -0.3946384E+00   -0.3560082E+00   -0.2825297E+00   -0.1813959E+00   -0.6250644E-01    0.6250122E-01    0.1813903E+00    0.2825232E+00
  0.3560008E+00    0.3946307E+00    0.3946432E+00    0.3560127E+00    0.2825339E+00    0.1813987E+00    0.6250683E-01   -0.6250379E-01   -0.1813961E+00   -0.2825318E+00
 -0.3560105E+00   -0.3946396E+00   -0.3946384E+00   -0.3560074E+00   -0.2825286E+00   -0.1813949E+00   -0.6250555E-01    0.6250171E-01    0.1813903E+00    0.2825228E+00
  0.3559993E+00    0.3946265E+00    0.3560103E+00    0.3211632E+00    0.2548776E+00    0.1636423E+00    0.5638813E-01   -0.5638616E-01   -0.1636412E+00   -0.2548774E+00
 -0.3211635E+00   -0.3560108E+00   -0.3560087E+00   -0.3211584E+00   -0.2548721E+00   -0.1636380E+00   -0.5638691E-01    0.5638313E-01    0.1636338E+00    0.2548665E+00
  0.3211508E+00    0.3559988E+00    0.2825363E+00    0.2548793E+00    0.2022740E+00    0.1298690E+00    0.4475118E-01   -0.4474776E-01   -0.1298667E+00   -0.2022730E+00
 -0.2548785E+00   -0.2825334E+00   -0.2825312E+00   -0.2548734E+00   -0.2022678E+00   -0.1298643E+00   -0.4475007E-01    0.4474433E-01    0.1298586E+00    0.2022607E+00
  0.2548648E+00    0.2825218E+00    0.1814007E+00    0.1636451E+00    0.1298713E+00    0.8338487E-01    0.2873593E-01   -0.2872634E-01   -0.8337669E-01   -0.1298651E+00
 -0.1636411E+00   -0.1813994E+00   -0.1814000E+00   -0.1636423E+00   -0.1298668E+00   -0.8338087E-01   -0.2873477E-01    0.2872380E-01    0.8337015E-01    0.1298543E+00
  0.1636270E+00    0.1813813E+00    0.6250713E-01    0.5639300E-01    0.4475751E-01    0.2874089E-01    0.9911323E-02   -0.9888148E-02   -0.2871816E-01   -0.4473523E-01
 -0.5637443E-01   -0.6250707E-01   -0.6251993E-01   -0.5640069E-01   -0.4475964E-01   -0.2873959E-01   -0.9910078E-02    0.9889218E-02    0.2871990E-01    0.4473602E-01
  0.5637361E-01    0.6249356E-01    0.6251684E-01    0.1814087E+00    0.2825456E+00    0.3560257E+00    0.3946561E+00    0.3946541E+00    0.3560117E+00    0.2824996E+00
  0.1812880E+00    0.6221298E-01   -0.6262822E-01   -0.1814428E+00   -0.2825430E+00   -0.3560060E+00   -0.3946239E+00   -0.3946218E+00   -0.3559938E+00   -0.2825107E+00
 -0.1813792E+00   -0.6249463E-01    0.5639656E-01    0.1636501E+00    0.2548864E+00    0.3211734E+00    0.3560213E+00    0.3560165E+00    0.3211521E+00    0.2548308E+00
  0.1635320E+00    0.5619718E-01   -0.5650556E-01   -0.1636976E+00   -0.2548960E+00   -0.3211622E+00   -0.3559993E+00   -0.3559952E+00   -0.3211458E+00   -0.2548580E+00
 -0.1636248E+00   -0.5637483E-01    0.4475690E-01    0.1298732E+00    0.2022779E+00    0.2548825E+00    0.2825361E+00    0.2825290E+00    0.2548566E+00    0.2022215E+00
  0.1297741E+00    0.4462164E-01   -0.4484718E-01   -0.1299237E+00   -0.2022971E+00   -0.2548823E+00   -0.2825268E+00   -0.2825213E+00   -0.2548630E+00   -0.2022570E+00
 -0.1298532E+00   -0.4473840E-01    0.2873668E-01    0.8338397E-01    0.1298697E+00    0.1636426E+00    0.1813950E+00    0.1813871E+00    0.1636161E+00    0.1298191E+00
  0.8330605E-01    0.2864103E-01   -0.2880720E-01   -0.8343084E-01   -0.1298943E+00   -0.1636520E+00   -0.1813976E+00   -0.1813917E+00   -0.1636325E+00   -0.1298566E+00
 -0.8337000E-01   -0.2872263E-01    0.9903281E-02    0.2873291E-01    0.4474974E-01    0.5638516E-01    0.6249908E-01    0.6249139E-01    0.5636107E-01    0.4470747E-01
  0.2867341E-01    0.9834530E-02   -0.9958765E-02   -0.2877433E-01   -0.4477653E-01   -0.5640144E-01   -0.6251086E-01   -0.6250539E-01   -0.5638383E-01   -0.4474424E-01
 -0.2872543E-01   -0.9894968E-02   -0.9898716E-02   -0.2872996E-01   -0.4474975E-01   -0.5639048E-01   -0.6251346E-01   -0.6252027E-01   -0.5641104E-01   -0.4478379E-01
 -0.2877513E-01   -0.9948933E-02    0.9854267E-02    0.2869394E-01    0.4472285E-01    0.5637016E-01    0.6249554E-01    0.6250023E-01    0.5638478E-01    0.4474863E-01
  0.2873141E-01    0.9901170E-02   -0.2873095E-01   -0.8337989E-01   -0.1298681E+00   -0.1636455E+00   -0.1814060E+00   -0.1814117E+00   -0.1636624E+00   -0.1298951E+00
 -0.8341433E-01   -0.2876838E-01    0.2869447E-01    0.8334851E-01    0.1298421E+00    0.1636232E+00    0.1813847E+00    0.1813884E+00    0.1636346E+00    0.1298619E+00
  0.8337654E-01    0.2872906E-01   -0.4475119E-01   -0.1298680E+00   -0.2022739E+00   -0.2548814E+00   -0.2825412E+00   -0.2825459E+00   -0.2548950E+00   -0.2022950E+00
 -0.1298942E+00   -0.4477886E-01    0.4471958E-01    0.1298399E+00    0.2022490E+00    0.2548585E+00    0.2825183E+00    0.2825211E+00    0.2548671E+00    0.2022638E+00
  0.1298606E+00    0.4474529E-01   -0.5639035E-01   -0.1636433E+00   -0.2548794E+00   -0.3211677E+00   -0.3560196E+00   -0.3560234E+00   -0.3211787E+00   -0.2548961E+00
 -0.1636636E+00   -0.5641121E-01    0.5636243E-01    0.1636179E+00    0.2548560E+00    0.3211452E+00    0.3559964E+00    0.3559985E+00    0.3211515E+00    0.2548667E+00
  0.1636330E+00    0.5638106E-01   -0.6250914E-01   -0.1814000E+00   -0.2825357E+00   -0.3560162E+00   -0.3946489E+00   -0.3946520E+00   -0.3560250E+00   -0.2825490E+00
 -0.1814160E+00   -0.6252563E-01    0.6248436E-01    0.1813769E+00    0.2825137E+00    0.3559945E+00    0.3946264E+00    0.3946279E+00    0.3559991E+00    0.2825216E+00
  0.1813881E+00    0.6249845E-01   -0.6251011E-01   -0.1814006E+00   -0.2825359E+00   -0.3560160E+00   -0.3946482E+00   -0.3946507E+00   -0.3560231E+00   -0.2825465E+00
 -0.1814132E+00   -0.6252282E-01    0.6248691E-01    0.1813789E+00    0.2825150E+00    0.3559952E+00    0.3946267E+00    0.3946278E+00    0.3559988E+00    0.2825212E+00
  0.1813877E+00    0.6249826E-01   -0.5639198E-01   -0.1636445E+00   -0.2548798E+00   -0.3211670E+00   -0.3560174E+00   -0.3560194E+00   -0.3211728E+00   -0.2548885E+00
 -0.1636549E+00   -0.5640237E-01    0.5637036E-01    0.1636241E+00    0.2548602E+00    0.3211475E+00    0.3559972E+00    0.3559982E+00    0.3211505E+00    0.2548652E+00
  0.1636312E+00    0.5637916E-01   -0.4475349E-01   -0.1298698E+00   -0.2022747E+00   -0.2548806E+00   -0.2825380E+00   -0.2825397E+00   -0.2548855E+00   -0.2022822E+00
 -0.1298790E+00   -0.4476315E-01    0.4473362E-01    0.1298508E+00    0.2022563E+00    0.2548623E+00    0.2825195E+00    0.2825205E+00    0.2548652E+00    0.2022611E+00
  0.1298574E+00    0.4474171E-01   -0.2873577E-01   -0.8338361E-01   -0.1298703E+00   -0.1636454E+00   -0.1814027E+00   -0.1814041E+00   -0.1636495E+00   -0.1298768E+00
 -0.8339169E-01   -0.2874443E-01    0.2871602E-01    0.8336491E-01    0.1298526E+00    0.1636284E+00    0.1813860E+00    0.1813870E+00    0.1636316E+00    0.1298579E+00
  0.8337199E-01    0.2872476E-01   -0.9905002E-02   -0.2873528E-01   -0.4475355E-01   -0.5639180E-01   -0.6251092E-01   -0.6251212E-01   -0.5639536E-01   -0.4475945E-01
 -0.2874322E-01   -0.9913942E-02    0.9885488E-02    0.2871688E-01    0.4473676E-01    0.5637652E-01    0.6249649E-01    0.6249779E-01    0.5638025E-01    0.4474274E-01
  0.2872480E-01    0.9894286E-02    0.9895717E-02    0.2872566E-01    0.4474363E-01    0.5638140E-01    0.6249944E-01    0.6249854E-01    0.5637839E-01    0.4473796E-01
  0.2871713E-01    0.9884792E-02   -0.9914982E-02   -0.2874389E-01   -0.4475954E-01   -0.5639483E-01   -0.6251096E-01   -0.6250946E-01   -0.5639032E-01   -0.4475209E-01
 -0.2873411E-01   -0.9904150E-02    0.2872543E-01    0.8337337E-01    0.1298602E+00    0.1636351E+00    0.1813917E+00    0.1813912E+00    0.1636329E+00    0.1298552E+00
  0.8336470E-01    0.2871356E-01   -0.2874717E-01   -0.8339291E-01   -0.1298758E+00   -0.1636464E+00   -0.1813997E+00   -0.1813982E+00   -0.1636410E+00   -0.1298664E+00
 -0.8338068E-01   -0.2873297E-01    0.4474344E-01    0.1298598E+00    0.2022648E+00    0.2548709E+00    0.2825281E+00    0.2825281E+00    0.2548700E+00    0.2022608E+00
  0.1298507E+00    0.4472995E-01   -0.4476759E-01   -0.1298807E+00   -0.2022800E+00   -0.2548795E+00   -0.2825319E+00   -0.2825304E+00   -0.2548734E+00   -0.2022689E+00
 -0.1298665E+00   -0.4475191E-01    0.5638187E-01    0.1636340E+00    0.2548698E+00    0.3211574E+00    0.3560083E+00    0.3560092E+00    0.3211583E+00    0.2548672E+00
  0.1636257E+00    0.5636830E-01   -0.5640753E-01   -0.1636564E+00   -0.2548851E+00   -0.3211640E+00   -0.3560078E+00   -0.3560072E+00   -0.3211573E+00   -0.2548713E+00
 -0.1636405E+00   -0.5638955E-01    0.6249718E-01    0.1813882E+00    0.2825247E+00    0.3560052E+00    0.3946387E+00    0.3946404E+00    0.3560073E+00    0.2825235E+00
  0.1813845E+00    0.6250027E-01   -0.6252608E-01   -0.1814146E+00   -0.2825435E+00   -0.3560117E+00   -0.3946354E+00   -0.3946376E+00   -0.3560041E+00   -0.2825245E+00
 -0.1813979E+00   -0.6250666E-01   -0.1594554E-01   -0.8979397E-02    0.2298960E-02    0.1357255E-01    0.2050635E-01    0.2048719E-01    0.1349196E-01    0.2136330E-02
 -0.9255033E-02   -0.1666756E-01   -0.1627647E-01   -0.9158736E-02    0.2185971E-02    0.1342824E-01    0.2046426E-01    0.2051968E-01    0.1349303E-01    0.2291043E-02
 -0.8903585E-02   -0.1593641E-01   -0.8989470E-02   -0.2036428E-02    0.9229513E-02    0.2049667E-01    0.2743642E-01    0.2740937E-01    0.2040364E-01    0.9052241E-02
 -0.2307110E-02   -0.9382171E-02   -0.9312177E-02   -0.2248912E-02    0.9109609E-02    0.2037847E-01    0.2739323E-01    0.2746147E-01    0.2046299E-01    0.9227398E-02
 -0.1957255E-02   -0.8953953E-02    0.2293731E-02    0.9230917E-02    0.2048200E-01    0.3174898E-01    0.3869330E-01    0.3865645E-01    0.3165812E-01    0.2032306E-01
  0.8988921E-02    0.2001029E-02    0.2004863E-02    0.9013990E-02    0.2036783E-01    0.3165106E-01    0.3864373E-01    0.3872021E-01    0.3174444E-01    0.2047955E-01
  0.9304310E-02    0.2344359E-02    0.1356848E-01    0.2050470E-01    0.3175772E-01    0.4302574E-01    0.4995975E-01    0.4992919E-01    0.4294047E-01    0.3160169E-01
  0.2029408E-01    0.1333487E-01    0.1330671E-01    0.2030188E-01    0.3165074E-01    0.4291688E-01    0.4991476E-01    0.4999776E-01    0.4300534E-01    0.3174908E-01