 TITLE = "NAVIER-STOKES OUTPUT"
 VARIABLES = "X", "Y", "U", "V", "P", "Pex", "Vor"
 ZONE I =   21, J =   21, DATAPACKING = BLOCK, VARLOCATION=(3=CELLCENTERED, 4=CELLCENTERED,5=CELLCENTERED,6=CELLCENTERED, 7=CELLCENTERED)
  0.0000000E+00    0.3141593E+00    0.6283185E+00    0.9424778E+00    0.1256637E+01    0.1570796E+01    0.1884956E+01    0.2199115E+01    0.2513274E+01    0.2827433E+01
  0.3141593E+01    0.3455752E+01    0.3769911E+01    0.4084071E+01    0.4398230E+01    0.4712389E+01    0.5026548E+01    0.5340708E+01    0.5654867E+01    0.5969026E+01
  0.6283185E+01    0.0000000E+00    0.3141593E+00    0.6283185E+00    0.9424778E+00    0.1256637E+01    0.1570796E+01    0.1884956E+01    0.2199115E+01    0.2513274E+01
  0.2827433E+01    0.3141593E+01    0.3455752E+01    0.3769911E+01    0.4084071E+01    0.4398230E+01    0.4712389E+01    0.5026548E+01    0.5340708E+01    0.5654867E+01
  0.5969026E+01    0.6283185E+01    0.0000000E+00    0.3141593E+00    0.6283185E+00    0.9424778E+00    0.1256637E+01    0.1570796E+01    0.1884956E+01    0.2199115E+01
  0.2513274E+01    0.2827433E+01    0.3141593E+01    0.3455752E+01    0.3769911E+01    0.4084071E+01    0.4398230E+01    0.4712389E+01    0.5026548E+01    0.5340708E+01
  0.5654867E+01    0.5969026E+01    0.6283185E+01    0.0000000E+00    0.3141593E+00    0.6283185E+00    0.9424778E+00    0.1256637E+01    0.1570796E+01    0.1884956E+01
  0.2199115E+01    0.2513274E+01    0.2827433E+01    0.3141593E+01    0.3455752E+01    0.3769911E+01    0.4084071E+01    0.4398230E+01    0.4712389E+01    0.5026548E+01
  0.5340708E+01    0.5654867E+01    0.5969026E+01    0.6283185E+01    0.0000000E+00    0.3141593E+00    0.6283185E+00    0.9424778E+00    0.1256637E+01    0.1570796E+01
  0.1884956E+01    0.2199115E+01    0.2513274E+01    0.2827433E+01    0.3141593E+01    0.3455752E+01    0.3769911E+01    0.4084071E+01    0.4398230E+01    0.4712389E+01
  0.5026548E+01    0.5340708E+01    0.5654867E+01    0.5969026E+01    0.6283185E+01    0.0000000E+00    0.3141593E+00    0.6283185E+00    0.9424778E+00    0.1256637E+01
  0.1570796E+01    0.1884956E+01    0.2199115E+01    0.2513274E+01    0.2827433E+01    0.3141593E+01    0.3455752E+01    0.3769911E+01    0.4084071E+01    0.4398230E+01
  0.4712389E+01    0.5026548E+01    0.5340708E+01    0.5654867E+01    0.5969026E+01    0.6283185E+01    0.0000000E+00    0.3141593E+00    0.6283185E+00    0.9424778E+00
  0.1256637E+01    0.1570796E+01    0.1884956E+01    0.2199115E+01    0.2513274E+01    0.2827433E+01    0.3141593E+01    0.3455752E+01    0.3769911E+01    0.4084071E+01
  0.4398230E+01    0.4712389E+01    0.5026548E+01    0.5340708E+01    0.5654867E+01    0.5969026E+01    0.6283185E+01    0.0000000E+00    0.3141593E+00    0.6283185E+00
  0.9424778E+00    0.1256637E+01    0.1570796E+01    0.1884956E+01    0.2199115E+01    0.2513274E+01    0.2827433E+01    0.3141593E+01    0.3455752E+01    0.3769911E+01
  0.4084071E+01    0.4398230E+01    0.4712389E+01    0.5026548E+01    0.5340708E+01    0.5654867E+01    0.5969026E+01    0.6283185E+01    0.0000000E+00    0.3141593E+00
  0.6283185E+00    0.9424778E+00    0.1256637E+01    0.1570796E+01    0.1884956E+01    0.2199115E+01    0.2513274E+01    0.2827433E+01    0.3141593E+01    0.3455752E+01
  0.3769911E+01    0.4084071E+01    0.4398230E+01    0.4712389E+01    0.5026548E+01    0.5340708E+01    0.5654867E+01    0.5969026E+01    0.6283185E+01    0.0000000E+00
  0.3141593E+00    0.6283185E+00    0.9424778E+00    0.1256637E+01    0.1570796E+01    0.1884956E+01    0.2199115E+01    0.2513274E+01    0.2827433E+01    0.3141593E+01
  0.3455752E+01    0.3769911E+01    0.4084071E+01    0.4398230E+01    0.4712389E+01    0.5026548E+01    0.5340708E+01    0.5654867E+01    0.5969026E+01    0.6283185E+01
  0.0000000E+00    0.3141593E+00    0.6283185E+00    0.9424778E+00    0.1256637E+01    0.1570796E+01    0.1884956E+01    0.2199115E+01    0.2513274E+01    0.2827433E+01
  0.3141593E+01    0.3455752E+01    0.3769911E+01    0.4084071E+01    0.4398230E+01    0.4712389E+01    0.5026548E+01    0.5340708E+01    0.5654867E+01    0.5969026E+01
  0.6283185E+01    0.0000000E+00    0.3141593E+00    0.6283185E+00    0.9424778E+00    0.1256637E+01    0.1570796E+01    0.1884956E+01    0.2199115E+01    0.2513274E+01
  0.2827433E+01    0.3141593E+01    0.3455752E+01    0.3769911E+01    0.4084071E+01    0.4398230E+01    0.4712389E+01    0.5026548E+01    0.5340708E+01    0.5654867E+01
  0.5969026E+01    0.6283185E+01    0.0000000E+00    0.3141593E+00    0.6283185E+00    0.9424778E+00    0.1256637E+01    0.1570796E+01    0.1884956E+01    0.2199115E+01
  0.2513274E+01    0.2827433E+01    0.3141593E+01    0.3455752E+01    0.3769911E+01    0.4084071E+01    0.4398230E+01    0.4712389E+01    0.5026548E+01    0.5340708E+01
  0.5654867E+01    0.5969026E+01    0.6283185E+01    0.0000000E+00    0.3141593E+00    0.6283185E+00    0.9424778E+00    0.1256637E+01    0.1570796E+01    0.1884956E+01
  0.2199115E+01    0.2513274E+01    0.2827433E+01    0.3141593E+01    0.3455752E+01    0.3769911E+01    0.4084071E+01    0.4398230E+01    0.4712389E+01    0.5026548E+01
  0.5340708E+01    0.5654867E+01    0.5969026E+01    0.6283185E+01    0.0000000E+00    0.3141593E+00    0.6283185E+00    0.9424778E+00    0.1256637E+01    0.1570796E+01
  0.1884956E+01    0.2199115E+01    0.2513274E+01    0.2827433E+01    0.3141593E+01    0.3455752E+01    0.3769911E+01    0.4084071E+01    0.4398230E+01    0.4712389E+01
  0.5026548E+01    0.5340708E+01    0.5654867E+01    0.5969026E+01    0.6283185E+01    0.0000000E+00    0.3141593E+00    0.6283185E+00    0.9424778E+00    0.1256637E+01
  0.1570796E+01    0.1884956E+01    0.2199115E+01    0.2513274E+01    0.2827433E+01    0.3141593E+01    0.3455752E+01    0.3769911E+01    0.4084071E+01    0.4398230E+01
  0.4712389E+01    0.5026548E+01    0.5340708E+01    0.5654867E+01    0.5969026E+01    0.6283185E+01    0.0000000E+00    0.3141593E+00    0.6283185E+00    0.9424778E+00
  0.1256637E+01    0.1570796E+01    0.1884956E+01    0.2199115E+01    0.2513274E+01    0.2827433E+01    0.3141593E+01    0.3455752E+01    0.3769911E+01    0.4084071E+01
  0.4398230E+01    0.4712389E+01    0.5026548E+01    0.5340708E+01    0.5654867E+01    0.5969026E+01    0.6283185E+01    0.0000000E+00    0.3141593E+00    0.6283185E+00
  0.9424778E+00    0.1256637E+01    0.1570796E+01    0.1884956E+01    0.2199115E+01    0.2513274E+01    0.2827433E+01    0.3141593E+01    0.3455752E+01    0.3769911E+01
  0.4084071E+01    0.4398230E+01    0.4712389E+01    0.5026548E+01    0.5340708E+01    0.5654867E+01    0.5969026E+01    0.6283185E+01    0.0000000E+00    0.3141593E+00
  0.6283185E+00    0.9424778E+00    0.1256637E+01    0.1570796E+01    0.1884956E+01    0.2199115E+01    0.2513274E+01    0.2827433E+01    0.3141593E+01    0.3455752E+01
  0.3769911E+01    0.4084071E+01    0.4398230E+01    0.4712389E+01    0.5026548E+01    0.5340708E+01    0.5654867E+01    0.5969026E+01    0.6283185E+01    0.0000000E+00
  0.3141593E+00    0.6283185E+00    0.9424778E+00    0.1256637E+01    0.1570796E+01    0.1884956E+01    0.2199115E+01    0.2513274E+01    0.2827433E+01    0.3141593E+01
  0.3455752E+01    0.3769911E+01    0.4084071E+01    0.4398230E+01    0.4712389E+01    0.5026548E+01    0.5340708E+01    0.5654867E+01    0.5969026E+01    0.6283185E+01
  0.0000000E+00    0.3141593E+00    0.6283185E+00    0.9424778E+00    0.1256637E+01    0.1570796E+01    0.1884956E+01    0.2199115E+01    0.2513274E+01    0.2827433E+01
  0.3141593E+01    0.3455752E+01    0.3769911E+01    0.4084071E+01    0.4398230E+01    0.4712389E+01    0.5026548E+01    0.5340708E+01    0.5654867E+01    0.5969026E+01
  0.6283185E+01    0.0000000E+00    0.0000000E+00    0.0000000E+00    0.0000000E+00    0.0000000E+00    0.0000000E+00    0.0000000E+00    0.0000000E+00    0.0000000E+00
  0.0000000E+00    0.0000000E+00    0.0000000E+00    0.0000000E+00    0.0000000E+00    0.0000000E+00    0.0000000E+00    0.0000000E+00    0.0000000E+00    0.0000000E+00
  0.0000000E+00    0.0000000E+00    0.3141593E+00    0.3141593E+00    0.3141593E+00    0.3141593E+00    0.3141593E+00    0.3141593E+00    0.3141593E+00    0.3141593E+00
  0.3141593E+00    0.3141593E+00    0.3141593E+00    0.3141593E+00    0.3141593E+00    0.3141593E+00    0.3141593E+00    0.3141593E+00    0.3141593E+00    0.3141593E+00
  0.3141593E+00    0.3141593E+00    0.3141593E+00    0.6283185E+00    0.6283185E+00    0.6283185E+00    0.6283185E+00    0.6283185E+00    0.6283185E+00    0.6283185E+00
  0.6283185E+00    0.6283185E+00    0.6283185E+00    0.6283185E+00    0.6283185E+00    0.6283185E+00    0.6283185E+00    0.6283185E+00    0.6283185E+00    0.6283185E+00
  0.6283185E+00    0.6283185E+00    0.6283185E+00    0.6283185E+00    0.9424778E+00    0.9424778E+00    0.9424778E+00    0.9424778E+00    0.9424778E+00    0.9424778E+00
  0.9424778E+00    0.9424778E+00    0.9424778E+00    0.9424778E+00    0.9424778E+00    0.9424778E+00    0.9424778E+00    0.9424778E+00    0.9424778E+00    0.9424778E+00
  0.9424778E+00    0.9424778E+00    0.9424778E+00    0.9424778E+00    0.9424778E+00    0.1256637E+01    0.1256637E+01    0.1256637E+01    0.1256637E+01    0.1256637E+01
  0.1256637E+01    0.1256637E+01    0.1256637E+01    0.1256637E+01    0.1256637E+01    0.1256637E+01    0.1256637E+01    0.1256637E+01    0.1256637E+01    0.1256637E+01
  0.1256637E+01    0.1256637E+01    0.1256637E+01    0.1256637E+01    0.1256637E+01    0.1256637E+01    0.1570796E+01    0.1570796E+01    0.1570796E+01    0.1570796E+01
  0.1570796E+01    0.1570796E+01    0.1570796E+01    0.1570796E+01    0.1570796E+01    0.1570796E+01    0.1570796E+01    0.1570796E+01    0.1570796E+01    0.1570796E+01
  0.1570796E+01    0.1570796E+01    0.1570796E+01    0.1570796E+01    0.1570796E+01    0.1570796E+01    0.1570796E+01    0.1884956E+01    0.1884956E+01    0.1884956E+01
  0.1884956E+01    0.1884956E+01    0.1884956E+01    0.1884956E+01    0.1884956E+01    0.1884956E+01    0.1884956E+01    0.1884956E+01    0.1884956E+01    0.1884956E+01
  0.1884956E+01    0.1884956E+01    0.1884956E+01    0.1884956E+01    0.1884956E+01    0.1884956E+01    0.1884956E+01    0.1884956E+01    0.2199115E+01    0.2199115E+01
  0.2199115E+01    0.2199115E+01    0.2199115E+01    0.2199115E+01    0.2199115E+01    0.2199115E+01    0.2199115E+01    0.2199115E+01    0.2199115E+01    0.2199115E+01
  0.2199115E+01    0.2199115E+01    0.2199115E+01    0.2199115E+01    0.2199115E+01    0.2199115E+01    0.2199115E+01    0.2199115E+01    0.2199115E+01    0.2513274E+01
  0.2513274E+01    0.2513274E+01    0.2513274E+01    0.2513274E+01    0.2513274E+01    0.2513274E+01    0.2513274E+01    0.2513274E+01    0.2513274E+01    0.2513274E+01
  0.2513274E+01    0.2513274E+01    0.2513274E+01    0.2513274E+01    0.2513274E+01    0.2513274E+01    0.2513274E+01    0.2513274E+01    0.2513274E+01    0.2513274E+01
  0.2827433E+01    0.2827433E+01    0.2827433E+01    0.2827433E+01    0.2827433E+01    0.2827433E+01    0.2827433E+01    0.2827433E+01    0.2827433E+01    0.2827433E+01
  0.2827433E+01    0.2827433E+01    0.2827433E+01    0.2827433E+01    0.2827433E+01    0.2827433E+01    0.2827433E+01    0.2827433E+01    0.2827433E+01    0.2827433E+01
  0.2827433E+01    0.3141593E+01    0.3141593E+01    0.3141593E+01    0.3141593E+01    0.3141593E+01    0.3141593E+01    0.3141593E+01    0.3141593E+01    0.3141593E+01
  0.3141593E+01    0.3141593E+01    0.3141593E+01    0.3141593E+01    0.3141593E+01    0.3141593E+01    0.3141593E+01    0.3141593E+01    0.3141593E+01    0.3141593E+01
  0.3141593E+01    0.3141593E+01    0.3455752E+01    0.3455752E+01    0.3455752E+01    0.3455752E+01    0.3455752E+01    0.3455752E+01    0.3455752E+01    0.3455752E+01
  0.3455752E+01    0.3455752E+01    0.3455752E+01    0.3455752E+01    0.3455752E+01    0.3455752E+01    0.3455752E+01    0.3455752E+01    0.3455752E+01    0.3455752E+01
  0.3455752E+01    0.3455752E+01    0.3455752E+01    0.3769911E+01    0.3769911E+01    0.3769911E+01    0.3769911E+01    0.3769911E+01    0.3769911E+01    0.3769911E+01
  0.3769911E+01    0.3769911E+01    0.3769911E+01    0.3769911E+01    0.3769911E+01    0.3769911E+01    0.3769911E+01    0.3769911E+01    0.3769911E+01    0.3769911E+01
  0.3769911E+01    0.3769911E+01    0.3769911E+01    0.3769911E+01    0.4084071E+01    0.4084071E+01    0.4084071E+01    0.4084071E+01    0.4084071E+01    0.4084071E+01
  0.4084071E+01    0.4084071E+01    0.4084071E+01    0.4084071E+01    0.4084071E+01    0.4084071E+01    0.4084071E+01    0.4084071E+01    0.4084071E+01    0.4084071E+01
  0.4084071E+01    0.4084071E+01    0.4084071E+01    0.4084071E+01    0.4084071E+01    0.4398230E+01    0.4398230E+01    0.4398230E+01    0.4398230E+01    0.4398230E+01
  0.4398230E+01    0.4398230E+01    0.4398230E+01    0.4398230E+01    0.4398230E+01    0.4398230E+01    0.4398230E+01    0.4398230E+01    0.4398230E+01    0.4398230E+01
  0.4398230E+01    0.4398230E+01    0.4398230E+01    0.4398230E+01    0.4398230E+01    0.4398230E+01    0.4712389E+01    0.4712389E+01    0.4712389E+01    0.4712389E+01
  0.4712389E+01    0.4712389E+01    0.4712389E+01    0.4712389E+01    0.4712389E+01    0.4712389E+01    0.4712389E+01    0.4712389E+01    0.4712389E+01    0.4712389E+01
  0.4712389E+01    0.4712389E+01    0.4712389E+01    0.4712389E+01    0.4712389E+01    0.4712389E+01    0.4712389E+01    0.5026548E+01    0.5026548E+01    0.5026548E+01
  0.5026548E+01    0.5026548E+01    0.5026548E+01    0.5026548E+01    0.5026548E+01    0.5026548E+01    0.5026548E+01    0.5026548E+01    0.5026548E+01    0.5026548E+01
  0.5026548E+01    0.5026548E+01    0.5026548E+01    0.5026548E+01    0.5026548E+01    0.5026548E+01    0.5026548E+01    0.5026548E+01    0.5340708E+01    0.5340708E+01
  0.5340708E+01    0.5340708E+01    0.5340708E+01    0.5340708E+01    0.5340708E+01    0.5340708E+01    0.5340708E+01    0.5340708E+01    0.5340708E+01    0.5340708E+01
  0.5340708E+01    0.5340708E+01    0.5340708E+01    0.5340708E+01    0.5340708E+01    0.5340708E+01    0.5340708E+01    0.5340708E+01    0.5340708E+01    0.5654867E+01
  0.5654867E+01    0.5654867E+01    0.5654867E+01    0.5654867E+01    0.5654867E+01    0.5654867E+01    0.5654867E+01    0.5654867E+01    0.5654867E+01    0.5654867E+01
  0.5654867E+01    0.5654867E+01    0.5654867E+01    0.5654867E+01    0.5654867E+01    0.5654867E+01    0.5654867E+01    0.5654867E+01    0.5654867E+01    0.5654867E+01
  0.5969026E+01    0.5969026E+01    0.5969026E+01    0.5969026E+01    0.5969026E+01    0.5969026E+01    0.5969026E+01    0.5969026E+01    0.5969026E+01    0.5969026E+01
  0.5969026E+01    0.5969026E+01    0.5969026E+01    0.5969026E+01    0.5969026E+01    0.5969026E+01    0.5969026E+01    0.5969026E+01    0.5969026E+01    0.5969026E+01
  0.5969026E+01    0.6283185E+01    0.6283185E+01    0.6283185E+01    0.6283185E+01    0.6283185E+01    0.6283185E+01    0.6283185E+01    0.6283185E+01    0.6283185E+01
  0.6283185E+01    0.6283185E+01    0.6283185E+01    0.6283185E+01    0.6283185E+01    0.6283185E+01    0.6283185E+01    0.6283185E+01    0.6283185E+01    0.6283185E+01
  0.6283185E+01    0.6283185E+01   -0.4295104E-02   -0.3874914E-02   -0.3075502E-02   -0.1974895E-02   -0.6808665E-03    0.6794786E-03    0.1973027E-02    0.3073026E-02
  0.3871655E-02    0.4295546E-02    0.4299257E-02    0.3877539E-02    0.3076934E-02    0.1976300E-02    0.6816641E-03   -0.6791018E-03   -0.1972500E-02   -0.3074019E-02
 -0.3874154E-02   -0.4293769E-02   -0.1246404E-01   -0.1124398E-01   -0.8923332E-02   -0.5729153E-02   -0.1974187E-02    0.1973795E-02    0.5728317E-02    0.8921896E-02
  0.1124235E-01    0.1246456E-01    0.1246676E-01    0.1124639E-01    0.8925141E-02    0.5730698E-02    0.1975279E-02   -0.1973035E-02   -0.5727851E-02   -0.8922378E-02
 -0.1124320E-01   -0.1246305E-01   -0.1941275E-01   -0.1751224E-01   -0.1389766E-01   -0.8922686E-02   -0.3074313E-02    0.3074846E-02    0.8922897E-02    0.1389751E-01
  0.1751206E-01    0.1941339E-01    0.1941447E-01    0.1751420E-01    0.1389937E-01    0.8924121E-02    0.3075348E-02   -0.3074112E-02   -0.8922436E-02   -0.1389750E-01
 -0.1751187E-01   -0.1941174E-01   -0.2446060E-01   -0.2206617E-01   -0.1751165E-01   -0.1124287E-01   -0.3873547E-02    0.3874860E-02    0.1124397E-01    0.1751248E-01
  0.2206696E-01    0.2446186E-01    0.2446227E-01    0.2206774E-01    0.1751301E-01    0.1124397E-01    0.3874281E-02   -0.3874339E-02   -0.1124362E-01   -0.1751239E-01
 -0.2206657E-01   -0.2446058E-01   -0.2711489E-01   -0.2446050E-01   -0.1941169E-01   -0.1246266E-01   -0.4293723E-02    0.4295489E-02    0.1246424E-01    0.1941292E-01
  0.2446146E-01    0.2711577E-01    0.2711578E-01    0.2446133E-01    0.1941241E-01    0.1246321E-01    0.4294011E-02   -0.4295331E-02   -0.1246421E-01   -0.1941306E-01
 -0.2446150E-01   -0.2711567E-01   -0.2711563E-01   -0.2446080E-01   -0.1941179E-01   -0.1246270E-01   -0.4293710E-02    0.4295506E-02    0.1246424E-01    0.1941289E-01
  0.2446128E-01    0.2711534E-01    0.2711516E-01    0.2446061E-01    0.1941167E-01    0.1246257E-01    0.4293452E-02   -0.4295843E-02   -0.1246460E-01   -0.1941336E-01
 -0.2446174E-01   -0.2711556E-01   -0.2446144E-01   -0.2206666E-01   -0.1751186E-01   -0.1124291E-01   -0.3873535E-02    0.3874895E-02    0.1124401E-01    0.1751242E-01
  0.2206652E-01    0.2446067E-01    0.2446038E-01    0.2206559E-01    0.1751092E-01    0.1124208E-01    0.3872657E-02   -0.3875727E-02   -0.1124479E-01   -0.1751331E-01
 -0.2206733E-01   -0.2446117E-01   -0.1941333E-01   -0.1751271E-01   -0.1389786E-01   -0.8922717E-02   -0.3074324E-02    0.3074882E-02    0.8923009E-02    0.1389757E-01
  0.1751166E-01    0.1941158E-01    0.1941125E-01    0.1751074E-01    0.1389614E-01    0.8921179E-02    0.3072887E-02   -0.3076179E-02   -0.8924242E-02   -0.1389882E-01
 -0.1751290E-01   -0.1941295E-01   -0.1246549E-01   -0.1124466E-01   -0.8923532E-02   -0.5729186E-02   -0.1974228E-02    0.1973778E-02    0.5728444E-02    0.8922263E-02
  0.1124257E-01    0.1246230E-01    0.1246208E-01    0.1124184E-01    0.8921127E-02    0.5727112E-02    0.1972354E-02   -0.1975506E-02   -0.5729998E-02   -0.8923732E-02
 -0.1124397E-01   -0.1246350E-01   -0.4296210E-02   -0.3875553E-02   -0.3075646E-02   -0.1974832E-02   -0.6809449E-03    0.6793785E-03    0.1973100E-02    0.3073510E-02
  0.3872891E-02    0.4293137E-02    0.4293012E-02    0.3872498E-02    0.3072932E-02    0.1972453E-02    0.6787316E-03   -0.6813679E-03   -0.1974848E-02   -0.3075159E-02
 -0.3874248E-02   -0.4293925E-02    0.4293229E-02    0.3872839E-02    0.3073305E-02    0.1972775E-02    0.6789193E-03   -0.6815568E-03   -0.1975471E-02   -0.3076194E-02
 -0.3875908E-02   -0.4296322E-02   -0.4296333E-02   -0.3875868E-02   -0.3076080E-02   -0.1975327E-02   -0.6812678E-03    0.6794441E-03    0.1973522E-02    0.3074410E-02
  0.3874329E-02    0.4294681E-02    0.1246147E-01    0.1124187E-01    0.8921315E-02    0.5727200E-02    0.1972295E-02   -0.1975867E-02   -0.5730763E-02   -0.8924793E-02
 -0.1124537E-01   -0.1246529E-01   -0.1246509E-01   -0.1124488E-01   -0.8924038E-02   -0.5729680E-02   -0.1974602E-02    0.1973674E-02    0.5728786E-02    0.8923032E-02
  0.1124377E-01    0.1246396E-01    0.1941168E-01    0.1751091E-01    0.1389607E-01    0.8920973E-02    0.3072505E-02   -0.3076870E-02   -0.8925115E-02   -0.1389986E-01
 -0.1751415E-01   -0.1941407E-01   -0.1941373E-01   -0.1751322E-01   -0.1389839E-01   -0.8923201E-02   -0.3074731E-02    0.3074780E-02    0.8923233E-02    0.1389808E-01
  0.1751275E-01    0.1941339E-01    0.2446062E-01    0.2206539E-01    0.1751037E-01    0.1124132E-01    0.3871807E-02   -0.3876762E-02   -0.1124594E-01   -0.1751443E-01
 -0.2206854E-01   -0.2446253E-01   -0.2446212E-01   -0.2206722E-01   -0.1751232E-01   -0.1124335E-01   -0.3873810E-02    0.3874859E-02    0.1124406E-01    0.1751262E-01
  0.2206678E-01    0.2446031E-01    0.2711351E-01    0.2445934E-01    0.1941034E-01    0.1246109E-01    0.4292002E-02   -0.4297312E-02   -0.1246606E-01   -0.1941457E-01
 -0.2446279E-01   -0.2711653E-01   -0.2711593E-01   -0.2446117E-01   -0.1941211E-01   -0.1246283E-01   -0.4293721E-02    0.4295547E-02    0.1246440E-01    0.1941301E-01
  0.2446112E-01    0.2711484E-01    0.2711490E-01    0.2445962E-01    0.1941026E-01    0.1246099E-01    0.4291918E-02   -0.4297344E-02   -0.1246594E-01   -0.1941439E-01
 -0.2446255E-01   -0.2711612E-01   -0.2711550E-01   -0.2446078E-01   -0.1941162E-01   -0.1246240E-01   -0.4293443E-02    0.4295901E-02    0.1246465E-01    0.1941307E-01
  0.2446151E-01    0.2711585E-01    0.2446032E-01    0.2206495E-01    0.1750991E-01    0.1124091E-01    0.3871532E-02   -0.3876816E-02   -0.1124572E-01   -0.1751391E-01
 -0.2206772E-01   -0.2446148E-01   -0.2446091E-01   -0.2206592E-01   -0.1751104E-01   -0.1124219E-01   -0.3872756E-02    0.3875712E-02    0.1124462E-01    0.1751289E-01
  0.2206663E-01    0.2445957E-01    0.1940968E-01    0.1750992E-01    0.1389539E-01    0.8920355E-02    0.3072097E-02   -0.3076913E-02   -0.8924802E-02   -0.1389906E-01
 -0.1751287E-01   -0.1941246E-01   -0.1941176E-01   -0.1751105E-01   -0.1389642E-01   -0.8921346E-02   -0.3072977E-02    0.3076023E-02    0.8924145E-02    0.1389867E-01
  0.1751235E-01    0.1941202E-01    0.1246289E-01    0.1124201E-01    0.8920919E-02    0.5726649E-02    0.1971874E-02   -0.1975937E-02   -0.5730363E-02   -0.8923908E-02
 -0.1124396E-01   -0.1246316E-01   -0.1246234E-01   -0.1124198E-01   -0.8921309E-02   -0.5727214E-02   -0.1972410E-02    0.1975445E-02    0.5730106E-02    0.8923917E-02
  0.1124428E-01    0.1246469E-01    0.4294697E-02    0.3873296E-02    0.3073199E-02    0.1972338E-02    0.6785601E-03   -0.6815839E-03   -0.1975278E-02   -0.3075712E-02
 -0.3874958E-02   -0.4294144E-02   -0.4292700E-02   -0.3871860E-02   -0.3072789E-02   -0.1972430E-02   -0.6782847E-03    0.6814497E-03    0.1974944E-02    0.3075850E-02
  0.3874335E-02    0.4293379E-02    0.4287023E-02    0.1245483E-01    0.1940210E-01    0.2444896E-01    0.2710050E-01    0.2709724E-01    0.2444051E-01    0.1939029E-01
  0.1244237E-01    0.4283331E-02   -0.4315476E-02   -0.1248699E-01   -0.1943340E-01   -0.2447976E-01   -0.2713275E-01   -0.2712842E-01   -0.2447220E-01   -0.1942374E-01
 -0.1247146E-01   -0.4301417E-02    0.3866720E-02    0.1123488E-01    0.1750195E-01    0.2205435E-01    0.2444612E-01    0.2444325E-01    0.2204647E-01    0.1749075E-01
  0.1122279E-01    0.3856923E-02   -0.3895012E-02   -0.1126554E-01   -0.1753286E-01   -0.2208521E-01   -0.2447747E-01   -0.2447444E-01   -0.2207793E-01   -0.1752227E-01
 -0.1125173E-01   -0.3881620E-02    0.3066824E-02    0.8914138E-02    0.1388740E-01    0.1749970E-01    0.1939739E-01    0.1939477E-01    0.1749235E-01    0.1387666E-01
  0.8901820E-02    0.3054396E-02   -0.3095787E-02   -0.8944282E-02   -0.1391797E-01   -0.1753039E-01   -0.1942828E-01   -0.1942575E-01   -0.1752342E-01   -0.1390742E-01
 -0.8931272E-02   -0.3082270E-02    0.1966079E-02    0.5719997E-02    0.8912441E-02    0.1123094E-01    0.1244851E-01    0.1244604E-01    0.1122395E-01    0.8901973E-02
  0.5707414E-02    0.1952670E-02   -0.1995502E-02   -0.5749923E-02   -0.8942665E-02   -0.1126133E-01   -0.1247909E-01   -0.1247674E-01   -0.1125471E-01   -0.8932577E-02
 -0.5737416E-02   -0.1982087E-02    0.6721944E-03    0.1965054E-02    0.3064033E-02    0.3861575E-02    0.4279613E-02    0.4277293E-02    0.3854894E-02    0.3053819E-02
  0.1952487E-02    0.6584909E-03   -0.7017477E-03   -0.1994816E-02   -0.3094007E-02   -0.3891751E-02   -0.4309945E-02   -0.4307761E-02   -0.3885508E-02   -0.3084382E-02
 -0.1982790E-02   -0.6885274E-03   -0.6887074E-03   -0.1983344E-02   -0.3085472E-02   -0.3887101E-02   -0.4309697E-02   -0.4311892E-02   -0.3893436E-02   -0.3095236E-02
 -0.1995477E-02   -0.7019048E-03    0.6588142E-03    0.1953519E-02    0.3055528E-02    0.3857017E-02    0.4279474E-02    0.4281487E-02    0.3862901E-02    0.3064684E-02
  0.1965007E-02    0.6717057E-03   -0.1983024E-02   -0.5738572E-02   -0.8934049E-02   -0.1125651E-01   -0.1247860E-01   -0.1248066E-01   -0.1126245E-01   -0.8943235E-02
 -0.5750049E-02   -0.1995461E-02    0.1952925E-02    0.5708632E-02    0.8904101E-02    0.1122647E-01    0.1244840E-01    0.1245033E-01    0.1123199E-01    0.8912666E-02
  0.5719517E-02    0.1965017E-02   -0.3083946E-02   -0.8933046E-02   -0.1390922E-01   -0.1752538E-01   -0.1942752E-01   -0.1942940E-01   -0.1753088E-01   -0.1391779E-01
 -0.8943757E-02   -0.3095733E-02    0.3053805E-02    0.8902969E-02    0.1387915E-01    0.1749520E-01    0.1939726E-01    0.1939905E-01    0.1750037E-01    0.1388723E-01
  0.8913226E-02    0.3065171E-02   -0.3884304E-02   -0.1125425E-01   -0.1752409E-01   -0.2208009E-01   -0.2447623E-01   -0.2447798E-01   -0.2208516E-01   -0.1753195E-01
 -0.1126408E-01   -0.3895105E-02    0.3853693E-02    0.1122376E-01    0.1749365E-01    0.2204966E-01    0.2444578E-01    0.2444743E-01    0.2205454E-01    0.1750132E-01
  0.1123343E-01    0.3864531E-02   -0.4305245E-02   -0.1247472E-01   -0.1942463E-01   -0.2447464E-01   -0.2713046E-01   -0.2713210E-01   -0.2447935E-01   -0.1943191E-01
 -0.1248386E-01   -0.4315243E-02    0.4274262E-02    0.1244385E-01    0.1939390E-01    0.2444400E-01    0.2709980E-01    0.2710142E-01    0.2444864E-01    0.1940110E-01
  0.1245302E-01    0.4284304E-02   -0.4305294E-02   -0.1247493E-01   -0.1942478E-01   -0.2447471E-01   -0.2713044E-01   -0.2713197E-01   -0.2447920E-01   -0.1943178E-01
 -0.1248370E-01   -0.4315147E-02    0.4274268E-02    0.1244385E-01    0.1939380E-01    0.2444379E-01    0.2709959E-01    0.2710115E-01    0.2444826E-01    0.1940079E-01
  0.1245267E-01    0.4283914E-02   -0.3885279E-02   -0.1125510E-01   -0.1752465E-01   -0.2208032E-01   -0.2447617E-01   -0.2447770E-01   -0.2208477E-01   -0.1753153E-01
 -0.1126372E-01   -0.3894884E-02    0.3853754E-02    0.1122363E-01    0.1749330E-01    0.2204914E-01    0.2444509E-01    0.2444658E-01    0.2205361E-01    0.1750033E-01
  0.1123240E-01    0.3863610E-02   -0.3085599E-02   -0.8934293E-02   -0.1391001E-01   -0.1752565E-01   -0.1942736E-01   -0.1942898E-01   -0.1753027E-01   -0.1391714E-01
 -0.8943273E-02   -0.3095427E-02    0.3053881E-02    0.8902700E-02    0.1387861E-01    0.1749442E-01    0.1939614E-01    0.1939777E-01    0.1749901E-01    0.1388567E-01
  0.8911658E-02    0.3063700E-02   -0.1984187E-02   -0.5739680E-02   -0.8934736E-02   -0.1125670E-01   -0.1247834E-01   -0.1248004E-01   -0.1126168E-01   -0.8942532E-02
 -0.5749490E-02   -0.1995191E-02    0.1952845E-02    0.5708289E-02    0.8903411E-02    0.1122539E-01    0.1244710E-01    0.1244879E-01    0.1123024E-01    0.8910939E-02
  0.5717776E-02    0.1963290E-02   -0.6902109E-03   -0.1984472E-02   -0.3086096E-02   -0.3887223E-02   -0.4309370E-02   -0.4311257E-02   -0.3892712E-02   -0.3094612E-02
 -0.1995148E-02   -0.7019556E-03    0.6585058E-03    0.1952958E-02    0.3054639E-02    0.3855857E-02    0.4278040E-02    0.4279785E-02    0.3861144E-02    0.3062961E-02
  0.1963352E-02    0.6704023E-03    0.6707226E-03    0.1964211E-02    0.3063675E-02    0.3861655E-02    0.4280059E-02    0.4277928E-02    0.3855555E-02    0.3054223E-02
  0.1952357E-02    0.6579379E-03   -0.7024386E-03   -0.1995647E-02   -0.3094943E-02   -0.3892887E-02   -0.4311426E-02   -0.4309365E-02   -0.3887100E-02   -0.3086027E-02
 -0.1984240E-02   -0.6898115E-03    0.1965805E-02    0.5719829E-02    0.8912495E-02    0.1123121E-01    0.1244897E-01    0.1244665E-01    0.1122444E-01    0.8901945E-02
  0.5706623E-02    0.1951141E-02   -0.1996917E-02   -0.5750914E-02   -0.8943562E-02   -0.1126246E-01   -0.1248030E-01   -0.1247808E-01   -0.1125617E-01   -0.8933750E-02
 -0.5738405E-02   -0.1983102E-02    0.3066367E-02    0.8914090E-02    0.1388756E-01    0.1749992E-01    0.1939768E-01    0.1939514E-01    0.1749253E-01    0.1387615E-01
  0.8899958E-02    0.3050943E-02   -0.3098097E-02   -0.8945395E-02   -0.1391876E-01   -0.1753127E-01   -0.1942917E-01   -0.1942687E-01   -0.1752450E-01   -0.1390803E-01
 -0.8931743E-02   -0.3082485E-02    0.3866265E-02    0.1123507E-01    0.1750235E-01    0.2205459E-01    0.2444624E-01    0.2444349E-01    0.2204660E-01    0.1749005E-01
  0.1121993E-01    0.3849859E-02   -0.3898329E-02   -0.1126635E-01   -0.1753309E-01   -0.2208589E-01   -0.2447790E-01   -0.2447503E-01   -0.2207884E-01   -0.1752226E-01
 -0.1125162E-01   -0.3882333E-02    0.4288005E-02    0.1245569E-01    0.1940299E-01    0.2444922E-01    0.2710020E-01    0.2709751E-01    0.2444083E-01    0.1938982E-01
  0.1243948E-01    0.4268818E-02   -0.4319646E-02   -0.1248627E-01   -0.1943270E-01   -0.2448088E-01   -0.2713192E-01   -0.2712831E-01   -0.2447391E-01   -0.1942202E-01
 -0.1247032E-01   -0.4303337E-02    0.8912696E-03    0.8960403E-03    0.9313543E-03    0.1005943E-02    0.9557450E-03    0.9118265E-03    0.8853054E-03    0.7159448E-03
  0.5873600E-03    0.4422085E-03    0.4238433E-03    0.5315751E-03    0.7661025E-03    0.6685496E-03    0.7324165E-03    0.9612126E-03    0.7354675E-03    0.6973814E-03
  0.9743941E-03    0.7125320E-03    0.8727929E-03    0.8730555E-03    0.9087887E-03    0.9616281E-03    0.9354200E-03    0.9043627E-03    0.8577380E-03    0.7212972E-03
  0.6348352E-03    0.5923323E-03    0.4898696E-03    0.5689541E-03    0.7634563E-03    0.7034806E-03    0.7706399E-03    0.9544013E-03    0.7855726E-03    0.7542777E-03
  0.9569236E-03    0.7718625E-03    0.9193476E-03    0.9138795E-03    0.9194224E-03    0.9769052E-03    0.9759927E-03    0.9194996E-03    0.8911915E-03    0.7848816E-03
  0.6839507E-03    0.6958744E-03    0.6118525E-03    0.6209589E-03    0.8120602E-03    0.8014575E-03    0.8006955E-03    0.9894418E-03    0.8940059E-03    0.7779632E-03
  0.9853263E-03    0.9073040E-03    0.1011234E-02    0.9866663E-03    0.9988819E-03    0.1066745E-02    0.1033621E-02    0.9924402E-03    0.9873528E-03    0.8400583E-03
  0.7695022E-03    0.8206923E-03    0.6931936E-03    0.7099201E-03    0.9150626E-03    0.8507978E-03    0.8693374E-03    0.1086417E-02    0.9258530E-03    0.8398774E-03