 TITLE = "NAVIER-STOKES OUTPUT"
 VARIABLES = "X", "Y", "U", "V", "P", "Pex", "Vor"
 ZONE I =   21, J =   21, DATAPACKING = BLOCK, VARLOCATION=(3=CELLCENTERED, 4=CELLCENTERED,5=CELLCENTERED,6=CELLCENTERED, 7=CELLCENTERED)
  0.0000000E+00    0.3141593E+00    0.6283185E+00    0.9424778E+00    0.1256637E+01    0.1570796E+01    0.1884956E+01    0.2199115E+01    0.2513274E+01    0.2827433E+01
  0.3141593E+01    0.3455752E+01    0.3769911E+01    0.4084071E+01    0.4398230E+01    0.4712389E+01    0.5026548E+01    0.5340708E+01    0.5654867E+01    0.5969026E+01
  0.6283185E+01    0.0000000E+00    0.3141593E+00    0.6283185E+00    0.9424778E+00    0.1256637E+01    0.1570796E+01    0.1884956E+01    0.2199115E+01    0.2513274E+01
  0.2827433E+01    0.3141593E+01    0.3455752E+01    0.3769911E+01    0.4084071E+01    0.4398230E+01    0.4712389E+01    0.5026548E+01    0.5340708E+01    0.5654867E+01
  0.5969026E+01    0.6283185E+01    0.0000000E+00    0.3141593E+00    0.6283185E+00    0.9424778E+00    0.1256637E+01    0.1570796E+01    0.1884956E+01    0.2199115E+01
  0.2513274E+01    0.2827433E+01    0.3141593E+01    0.3455752E+01    0.3769911E+01    0.4084071E+01    0.4398230E+01    0.4712389E+01    0.5026548E+01    0.5340708E+01
  0.5654867E+01    0.5969026E+01    0.6283185E+01    0.0000000E+00    0.3141593E+00    0.6283185E+00    0.9424778E+00    0.1256637E+01    0.1570796E+01    0.1884956E+01
  0.2199115E+01    0.2513274E+01    0.2827433E+01    0.3141593E+01    0.3455752E+01    0.3769911E+01    0.4084071E+01    0.4398230E+01    0.4712389E+01    0.5026548E+01
  0.5340708E+01    0.5654867E+01    0.5969026E+01    0.6283185E+01    0.0000000E+00    0.3141593E+00    0.6283185E+00    0.9424778E+00    0.1256637E+01    0.1570796E+01
  0.1884956E+01    0.2199115E+01    0.2513274E+01    0.2827433E+01    0.3141593E+01    0.3455752E+01    0.3769911E+01    0.4084071E+01    0.4398230E+01    0.4712389E+01
  0.5026548E+01    0.5340708E+01    0.5654867E+01    0.5969026E+01    0.6283185E+01    0.0000000E+00    0.3141593E+00    0.6283185E+00    0.9424778E+00    0.1256637E+01
  0.1570796E+01    0.1884956E+01    0.2199115E+01    0.2513274E+01    0.2827433E+01    0.3141593E+01    0.3455752E+01    0.3769911E+01    0.4084071E+01    0.4398230E+01
  0.4712389E+01    0.5026548E+01    0.5340708E+01    0.5654867E+01    0.5969026E+01    0.6283185E+01    0.0000000E+00    0.3141593E+00    0.6283185E+00    0.9424778E+00
  0.1256637E+01    0.1570796E+01    0.1884956E+01    0.2199115E+01    0.2513274E+01    0.2827433E+01    0.3141593E+01    0.3455752E+01    0.3769911E+01    0.4084071E+01
  0.4398230E+01    0.4712389E+01    0.5026548E+01    0.5340708E+01    0.5654867E+01    0.5969026E+01    0.6283185E+01    0.0000000E+00    0.3141593E+00    0.6283185E+00
  0.9424778E+00    0.1256637E+01    0.1570796E+01    0.1884956E+01    0.2199115E+01    0.2513274E+01    0.2827433E+01    0.3141593E+01    0.3455752E+01    0.3769911E+01
  0.4084071E+01    0.4398230E+01    0.4712389E+01    0.5026548E+01    0.5340708E+01    0.5654867E+01    0.5969026E+01    0.6283185E+01    0.0000000E+00    0.3141593E+00
  0.6283185E+00    0.9424778E+00    0.1256637E+01    0.1570796E+01    0.1884956E+01    0.2199115E+01    0.2513274E+01    0.2827433E+01    0.3141593E+01    0.3455752E+01
  0.3769911E+01    0.4084071E+01    0.4398230E+01    0.4712389E+01    0.5026548E+01    0.5340708E+01    0.5654867E+01    0.5969026E+01    0.6283185E+01    0.0000000E+00
  0.3141593E+00    0.6283185E+00    0.9424778E+00    0.1256637E+01    0.1570796E+01    0.1884956E+01    0.2199115E+01    0.2513274E+01    0.2827433E+01    0.3141593E+01
  0.3455752E+01    0.3769911E+01    0.4084071E+01    0.4398230E+01    0.4712389E+01    0.5026548E+01    0.5340708E+01    0.5654867E+01    0.5969026E+01    0.6283185E+01
  0.0000000E+00    0.3141593E+00    0.6283185E+00    0.9424778E+00    0.1256637E+01    0.1570796E+01    0.1884956E+01    0.2199115E+01    0.2513274E+01    0.2827433E+01
  0.3141593E+01    0.3455752E+01    0.3769911E+01    0.4084071E+01    0.4398230E+01    0.4712389E+01    0.5026548E+01    0.5340708E+01    0.5654867E+01    0.5969026E+01
  0.6283185E+01    0.0000000E+00    0.3141593E+00    0.6283185E+00    0.9424778E+00    0.1256637E+01    0.1570796E+01    0.1884956E+01    0.2199115E+01    0.2513274E+01
  0.2827433E+01    0.3141593E+01    0.3455752E+01    0.3769911E+01    0.4084071E+01    0.4398230E+01    0.4712389E+01    0.5026548E+01    0.5340708E+01    0.5654867E+01
  0.5969026E+01    0.6283185E+01    0.0000000E+00    0.3141593E+00    0.6283185E+00    0.9424778E+00    0.1256637E+01    0.1570796E+01    0.1884956E+01    0.2199115E+01
  0.2513274E+01    0.2827433E+01    0.3141593E+01    0.3455752E+01    0.3769911E+01    0.4084071E+01    0.4398230E+01    0.4712389E+01    0.5026548E+01    0.5340708E+01
  0.5654867E+01    0.5969026E+01    0.6283185E+01    0.0000000E+00    0.3141593E+00    0.6283185E+00    0.9424778E+00    0.1256637E+01    0.1570796E+01    0.1884956E+01
  0.2199115E+01    0.2513274E+01    0.2827433E+01    0.3141593E+01    0.3455752E+01    0.3769911E+01    0.4084071E+01    0.4398230E+01    0.4712389E+01    0.5026548E+01
  0.5340708E+01    0.5654867E+01    0.5969026E+01    0.6283185E+01    0.0000000E+00    0.3141593E+00    0.6283185E+00    0.9424778E+00    0.1256637E+01    0.1570796E+01
  0.1884956E+01    0.2199115E+01    0.2513274E+01    0.2827433E+01    0.3141593E+01    0.3455752E+01    0.3769911E+01    0.4084071E+01    0.4398230E+01    0.4712389E+01
  0.5026548E+01    0.5340708E+01    0.5654867E+01    0.5969026E+01    0.6283185E+01    0.0000000E+00    0.3141593E+00    0.6283185E+00    0.9424778E+00    0.1256637E+01
  0.1570796E+01    0.1884956E+01    0.2199115E+01    0.2513274E+01    0.2827433E+01    0.3141593E+01    0.3455752E+01    0.3769911E+01    0.4084071E+01    0.4398230E+01
  0.4712389E+01    0.5026548E+01    0.5340708E+01    0.5654867E+01    0.5969026E+01    0.6283185E+01    0.0000000E+00    0.3141593E+00    0.6283185E+00    0.9424778E+00
  0.1256637E+01    0.1570796E+01    0.1884956E+01    0.2199115E+01    0.2513274E+01    0.2827433E+01    0.3141593E+01    0.3455752E+01    0.3769911E+01    0.4084071E+01
  0.4398230E+01    0.4712389E+01    0.5026548E+01    0.5340708E+01    0.5654867E+01    0.5969026E+01    0.6283185E+01    0.0000000E+00    0.3141593E+00    0.6283185E+00
  0.9424778E+00    0.1256637E+01    0.1570796E+01    0.1884956E+01    0.2199115E+01    0.2513274E+01    0.2827433E+01    0.3141593E+01    0.3455752E+01    0.3769911E+01
  0.4084071E+01    0.4398230E+01    0.4712389E+01    0.5026548E+01    0.5340708E+01    0.5654867E+01    0.5969026E+01    0.6283185E+01    0.0000000E+00    0.3141593E+00
  0.6283185E+00    0.9424778E+00    0.1256637E+01    0.1570796E+01    0.1884956E+01    0.2199115E+01    0.2513274E+01    0.2827433E+01    0.3141593E+01    0.3455752E+01
  0.3769911E+01    0.4084071E+01    0.4398230E+01    0.4712389E+01    0.5026548E+01    0.5340708E+01    0.5654867E+01    0.5969026E+01    0.6283185E+01    0.0000000E+00
  0.3141593E+00    0.6283185E+00    0.9424778E+00    0.1256637E+01    0.1570796E+01    0.1884956E+01    0.2199115E+01    0.2513274E+01    0.2827433E+01    0.3141593E+01
  0.3455752E+01    0.3769911E+01    0.4084071E+01    0.4398230E+01    0.4712389E+01    0.5026548E+01    0.5340708E+01    0.5654867E+01    0.5969026E+01    0.6283185E+01
  0.0000000E+00    0.3141593E+00    0.6283185E+00    0.9424778E+00    0.1256637E+01    0.1570796E+01    0.1884956E+01    0.2199115E+01    0.2513274E+01    0.2827433E+01
  0.3141593E+01    0.3455752E+01    0.3769911E+01    0.4084071E+01    0.4398230E+01    0.4712389E+01    0.5026548E+01    0.5340708E+01    0.5654867E+01    0.5969026E+01
  0.6283185E+01    0.0000000E+00    0.0000000E+00    0.0000000E+00    0.0000000E+00    0.0000000E+00    0.0000000E+00    0.0000000E+00    0.0000000E+00    0.0000000E+00
  0.0000000E+00    0.0000000E+00    0.0000000E+00    0.0000000E+00    0.0000000E+00    0.0000000E+00    0.0000000E+00    0.0000000E+00    0.0000000E+00    0.0000000E+00
  0.0000000E+00    0.0000000E+00    0.3141593E+00    0.3141593E+00    0.3141593E+00    0.3141593E+00    0.3141593E+00    0.3141593E+00    0.3141593E+00    0.3141593E+00
  0.3141593E+00    0.3141593E+00    0.3141593E+00    0.3141593E+00    0.3141593E+00    0.3141593E+00    0.3141593E+00    0.3141593E+00    0.3141593E+00    0.3141593E+00
  0.3141593E+00    0.3141593E+00    0.3141593E+00    0.6283185E+00    0.6283185E+00    0.6283185E+00    0.6283185E+00    0.6283185E+00    0.6283185E+00    0.6283185E+00
  0.6283185E+00    0.6283185E+00    0.6283185E+00    0.6283185E+00    0.6283185E+00    0.6283185E+00    0.6283185E+00    0.6283185E+00    0.6283185E+00    0.6283185E+00
  0.6283185E+00    0.6283185E+00    0.6283185E+00    0.6283185E+00    0.9424778E+00    0.9424778E+00    0.9424778E+00    0.9424778E+00    0.9424778E+00    0.9424778E+00
  0.9424778E+00    0.9424778E+00    0.9424778E+00    0.9424778E+00    0.9424778E+00    0.9424778E+00    0.9424778E+00    0.9424778E+00    0.9424778E+00    0.9424778E+00
  0.9424778E+00    0.9424778E+00    0.9424778E+00    0.9424778E+00    0.9424778E+00    0.1256637E+01    0.1256637E+01    0.1256637E+01    0.1256637E+01    0.1256637E+01
  0.1256637E+01    0.1256637E+01    0.1256637E+01    0.1256637E+01    0.1256637E+01    0.1256637E+01    0.1256637E+01    0.1256637E+01    0.1256637E+01    0.1256637E+01
  0.1256637E+01    0.1256637E+01    0.1256637E+01    0.1256637E+01    0.1256637E+01    0.1256637E+01    0.1570796E+01    0.1570796E+01    0.1570796E+01    0.1570796E+01
  0.1570796E+01    0.1570796E+01    0.1570796E+01    0.1570796E+01    0.1570796E+01    0.1570796E+01    0.1570796E+01    0.1570796E+01    0.1570796E+01    0.1570796E+01
  0.1570796E+01    0.1570796E+01    0.1570796E+01    0.1570796E+01    0.1570796E+01    0.1570796E+01    0.1570796E+01    0.1884956E+01    0.1884956E+01    0.1884956E+01
  0.1884956E+01    0.1884956E+01    0.1884956E+01    0.1884956E+01    0.1884956E+01    0.1884956E+01    0.1884956E+01    0.1884956E+01    0.1884956E+01    0.1884956E+01
  0.1884956E+01    0.1884956E+01    0.1884956E+01    0.1884956E+01    0.1884956E+01    0.1884956E+01    0.1884956E+01    0.1884956E+01    0.2199115E+01    0.2199115E+01
  0.2199115E+01    0.2199115E+01    0.2199115E+01    0.2199115E+01    0.2199115E+01    0.2199115E+01    0.2199115E+01    0.2199115E+01    0.2199115E+01    0.2199115E+01
  0.2199115E+01    0.2199115E+01    0.2199115E+01    0.2199115E+01    0.2199115E+01    0.2199115E+01    0.2199115E+01    0.2199115E+01    0.2199115E+01    0.2513274E+01
  0.2513274E+01    0.2513274E+01    0.2513274E+01    0.2513274E+01    0.2513274E+01    0.2513274E+01    0.2513274E+01    0.2513274E+01    0.2513274E+01    0.2513274E+01
  0.2513274E+01    0.2513274E+01    0.2513274E+01    0.2513274E+01    0.2513274E+01    0.2513274E+01    0.2513274E+01    0.2513274E+01    0.2513274E+01    0.2513274E+01
  0.2827433E+01    0.2827433E+01    0.2827433E+01    0.2827433E+01    0.2827433E+01    0.2827433E+01    0.2827433E+01    0.2827433E+01    0.2827433E+01    0.2827433E+01
  0.2827433E+01    0.2827433E+01    0.2827433E+01    0.2827433E+01    0.2827433E+01    0.2827433E+01    0.2827433E+01    0.2827433E+01    0.2827433E+01    0.2827433E+01
  0.2827433E+01    0.3141593E+01    0.3141593E+01    0.3141593E+01    0.3141593E+01    0.3141593E+01    0.3141593E+01    0.3141593E+01    0.3141593E+01    0.3141593E+01
  0.3141593E+01    0.3141593E+01    0.3141593E+01    0.3141593E+01    0.3141593E+01    0.3141593E+01    0.3141593E+01    0.3141593E+01    0.3141593E+01    0.3141593E+01
  0.3141593E+01    0.3141593E+01    0.3455752E+01    0.3455752E+01    0.3455752E+01    0.3455752E+01    0.3455752E+01    0.3455752E+01    0.3455752E+01    0.3455752E+01
  0.3455752E+01    0.3455752E+01    0.3455752E+01    0.3455752E+01    0.3455752E+01    0.3455752E+01    0.3455752E+01    0.3455752E+01    0.3455752E+01    0.3455752E+01
  0.3455752E+01    0.3455752E+01    0.3455752E+01    0.3769911E+01    0.3769911E+01    0.3769911E+01    0.3769911E+01    0.3769911E+01    0.3769911E+01    0.3769911E+01
  0.3769911E+01    0.3769911E+01    0.3769911E+01    0.3769911E+01    0.3769911E+01    0.3769911E+01    0.3769911E+01    0.3769911E+01    0.3769911E+01    0.3769911E+01
  0.3769911E+01    0.3769911E+01    0.3769911E+01    0.3769911E+01    0.4084071E+01    0.4084071E+01    0.4084071E+01    0.4084071E+01    0.4084071E+01    0.4084071E+01
  0.4084071E+01    0.4084071E+01    0.4084071E+01    0.4084071E+01    0.4084071E+01    0.4084071E+01    0.4084071E+01    0.4084071E+01    0.4084071E+01    0.4084071E+01
  0.4084071E+01    0.4084071E+01    0.4084071E+01    0.4084071E+01    0.4084071E+01    0.4398230E+01    0.4398230E+01    0.4398230E+01    0.4398230E+01    0.4398230E+01
  0.4398230E+01    0.4398230E+01    0.4398230E+01    0.4398230E+01    0.4398230E+01    0.4398230E+01    0.4398230E+01    0.4398230E+01    0.4398230E+01    0.4398230E+01
  0.4398230E+01    0.4398230E+01    0.4398230E+01    0.4398230E+01    0.4398230E+01    0.4398230E+01    0.4712389E+01    0.4712389E+01    0.4712389E+01    0.4712389E+01
  0.4712389E+01    0.4712389E+01    0.4712389E+01    0.4712389E+01    0.4712389E+01    0.4712389E+01    0.4712389E+01    0.4712389E+01    0.4712389E+01    0.4712389E+01
  0.4712389E+01    0.4712389E+01    0.4712389E+01    0.4712389E+01    0.4712389E+01    0.4712389E+01    0.4712389E+01    0.5026548E+01    0.5026548E+01    0.5026548E+01
  0.5026548E+01    0.5026548E+01    0.5026548E+01    0.5026548E+01    0.5026548E+01    0.5026548E+01    0.5026548E+01    0.5026548E+01    0.5026548E+01    0.5026548E+01
  0.5026548E+01    0.5026548E+01    0.5026548E+01    0.5026548E+01    0.5026548E+01    0.5026548E+01    0.5026548E+01    0.5026548E+01    0.5340708E+01    0.5340708E+01
  0.5340708E+01    0.5340708E+01    0.5340708E+01    0.5340708E+01    0.5340708E+01    0.5340708E+01    0.5340708E+01    0.5340708E+01    0.5340708E+01    0.5340708E+01
  0.5340708E+01    0.5340708E+01    0.5340708E+01    0.5340708E+01    0.5340708E+01    0.5340708E+01    0.5340708E+01    0.5340708E+01    0.5340708E+01    0.5654867E+01
  0.5654867E+01    0.5654867E+01    0.5654867E+01    0.5654867E+01    0.5654867E+01    0.5654867E+01    0.5654867E+01    0.5654867E+01    0.5654867E+01    0.5654867E+01
  0.5654867E+01    0.5654867E+01    0.5654867E+01    0.5654867E+01    0.5654867E+01    0.5654867E+01    0.5654867E+01    0.5654867E+01    0.5654867E+01    0.5654867E+01
  0.5969026E+01    0.5969026E+01    0.5969026E+01    0.5969026E+01    0.5969026E+01    0.5969026E+01    0.5969026E+01    0.5969026E+01    0.5969026E+01    0.5969026E+01
  0.5969026E+01    0.5969026E+01    0.5969026E+01    0.5969026E+01    0.5969026E+01    0.5969026E+01    0.5969026E+01    0.5969026E+01    0.5969026E+01    0.5969026E+01
  0.5969026E+01    0.6283185E+01    0.6283185E+01    0.6283185E+01    0.6283185E+01    0.6283185E+01    0.6283185E+01    0.6283185E+01    0.6283185E+01    0.6283185E+01
  0.6283185E+01    0.6283185E+01    0.6283185E+01    0.6283185E+01    0.6283185E+01    0.6283185E+01    0.6283185E+01    0.6283185E+01    0.6283185E+01    0.6283185E+01
  0.6283185E+01    0.6283185E+01   -0.6900973E-01   -0.6225125E-01   -0.4939736E-01   -0.3170597E-01   -0.1090863E-01    0.1096042E-01    0.3176337E-01    0.4946684E-01
  0.6233427E-01    0.6902592E-01    0.6895937E-01    0.6221698E-01    0.4938035E-01    0.3169981E-01    0.1091026E-01   -0.1094960E-01   -0.3174183E-01   -0.4942919E-01
 -0.6227798E-01   -0.6903420E-01   -0.2002938E+00   -0.1806836E+00   -0.1433844E+00   -0.9204667E-01   -0.3169470E-01    0.3176540E-01    0.9212306E-01    0.1434681E+00
  0.1807616E+00    0.2003176E+00    0.2002635E+00    0.1806488E+00    0.1433608E+00    0.9203605E-01    0.3169700E-01   -0.3174866E-01   -0.9209074E-01   -0.1434210E+00
 -0.1807135E+00   -0.2003192E+00   -0.3119710E+00   -0.2814289E+00   -0.2233358E+00   -0.1433774E+00   -0.4937969E-01    0.4945693E-01    0.1434572E+00    0.2234156E+00
  0.2814950E+00    0.3119982E+00    0.3119596E+00    0.2814049E+00    0.2233150E+00    0.1433668E+00    0.4938206E-01   -0.4943991E-01   -0.1434259E+00   -0.2233753E+00
 -0.2814609E+00   -0.3119971E+00   -0.3931110E+00   -0.3546262E+00   -0.2814256E+00   -0.1806737E+00   -0.6223223E-01    0.6230494E-01    0.1807461E+00    0.2814935E+00
  0.3546794E+00    0.3931365E+00    0.3931098E+00    0.3546123E+00    0.2814107E+00    0.1806651E+00    0.6223384E-01   -0.6229157E-01   -0.1807223E+00   -0.2814653E+00
 -0.3546586E+00   -0.3931375E+00   -0.4357704E+00   -0.3931096E+00   -0.3119667E+00   -0.2002837E+00   -0.6899258E-01    0.6905478E-01    0.2003441E+00    0.3120211E+00
  0.3931509E+00    0.4357914E+00    0.4357729E+00    0.3931025E+00    0.3119572E+00    0.2002774E+00    0.6899300E-01   -0.6904637E-01   -0.2003291E+00   -0.3120044E+00
 -0.3931402E+00   -0.4357945E+00   -0.4357705E+00   -0.3931107E+00   -0.3119688E+00   -0.2002870E+00   -0.6899747E-01    0.6904776E-01    0.2003349E+00    0.3120110E+00
  0.3931427E+00    0.4357884E+00    0.4357757E+00    0.3931083E+00    0.3119633E+00    0.2002826E+00    0.6899678E-01   -0.6904386E-01   -0.2003275E+00   -0.3120034E+00
 -0.3931396E+00   -0.4357937E+00   -0.3931139E+00   -0.3546303E+00   -0.2814315E+00   -0.1806826E+00   -0.6224574E-01    0.6228533E-01    0.1807200E+00    0.2814639E+00
  0.3546548E+00    0.3931283E+00    0.3931196E+00    0.3546303E+00    0.2814288E+00    0.1806797E+00    0.6224432E-01   -0.6228463E-01   -0.1807179E+00   -0.2814627E+00
 -0.3546573E+00   -0.3931372E+00   -0.3119762E+00   -0.2814349E+00   -0.2233440E+00   -0.1433897E+00   -0.4939826E-01    0.4942935E-01    0.1434188E+00    0.2233691E+00
  0.2814537E+00    0.3119871E+00    0.3119809E+00    0.2814362E+00    0.2233431E+00    0.1433879E+00    0.4939667E-01   -0.4943045E-01   -0.1434200E+00   -0.2233716E+00
 -0.2814592E+00   -0.3119968E+00   -0.2002967E+00   -0.1806885E+00   -0.1433922E+00   -0.9205860E-01   -0.3171286E-01    0.3173771E-01    0.9208182E-01    0.1434122E+00
  0.1807041E+00    0.2003072E+00    0.2003027E+00    0.1806913E+00    0.1433928E+00    0.9205803E-01    0.3171160E-01   -0.3173956E-01   -0.9208457E-01   -0.1434166E+00
 -0.1807109E+00   -0.2003166E+00   -0.6901069E-01   -0.6225413E-01   -0.4940268E-01   -0.3171447E-01   -0.1092119E-01    0.1094154E-01    0.3173355E-01    0.4941929E-01
  0.6226738E-01    0.6902031E-01    0.6901702E-01    0.6225783E-01    0.4940452E-01    0.3171499E-01    0.1092050E-01   -0.1094341E-01   -0.3173685E-01   -0.4942467E-01
 -0.6227533E-01   -0.6903130E-01    0.6903024E-01    0.6227484E-01    0.4942392E-01    0.3173552E-01    0.1094107E-01   -0.1092397E-01   -0.3171943E-01   -0.4940988E-01
 -0.6226365E-01   -0.6902254E-01   -0.6902503E-01   -0.6227083E-01   -0.4942117E-01   -0.3173410E-01   -0.1094104E-01    0.1092251E-01    0.3171612E-01    0.4940441E-01
  0.6225587E-01    0.6901233E-01    0.2003179E+00    0.1807101E+00    0.1434140E+00    0.9208031E-01    0.3173367E-01   -0.3171896E-01   -0.9206645E-01   -0.1434016E+00
 -0.1806994E+00   -0.2003090E+00   -0.2003108E+00   -0.1807048E+00   -0.1434103E+00   -0.9207797E-01   -0.3173286E-01    0.3171791E-01    0.9206338E-01    0.1433964E+00
  0.1806921E+00    0.2003004E+00    0.3119964E+00    0.2814564E+00    0.2233665E+00    0.1434126E+00    0.4942090E-01   -0.4940824E-01   -0.1434006E+00   -0.2233557E+00
 -0.2814470E+00   -0.3119879E+00   -0.3119892E+00   -0.2814508E+00   -0.2233622E+00   -0.1434096E+00   -0.4941959E-01    0.4940752E-01    0.1433976E+00    0.2233501E+00
  0.2814388E+00    0.3119772E+00    0.3931334E+00    0.3546522E+00    0.2814552E+00    0.1807076E+00    0.6227124E-01   -0.6226045E-01   -0.1806974E+00   -0.2814462E+00
 -0.3546447E+00   -0.3931276E+00   -0.3931284E+00   -0.3546470E+00   -0.2814505E+00   -0.1807041E+00   -0.6226957E-01    0.6225982E-01    0.1806941E+00    0.2814402E+00
  0.3546364E+00    0.3931174E+00    0.4357929E+00    0.3931345E+00    0.3119944E+00    0.2003146E+00    0.6902681E-01   -0.6901772E-01   -0.2003062E+00   -0.3119868E+00
 -0.3931276E+00   -0.4357858E+00   -0.4357859E+00   -0.3931283E+00   -0.3119890E+00   -0.2003106E+00   -0.6902493E-01    0.6901670E-01    0.2003021E+00    0.3119800E+00
  0.3931188E+00    0.4357767E+00    0.4357923E+00    0.3931340E+00    0.3119940E+00    0.2003142E+00    0.6902625E-01   -0.6901864E-01   -0.2003074E+00   -0.3119884E+00
 -0.3931291E+00   -0.4357867E+00   -0.4357860E+00   -0.3931279E+00   -0.3119882E+00   -0.2003098E+00   -0.6902451E-01    0.6901696E-01    0.2003020E+00    0.3119793E+00
  0.3931174E+00    0.4357731E+00    0.3931315E+00    0.3546510E+00    0.2814544E+00    0.1807067E+00    0.6226985E-01   -0.6226278E-01   -0.1807009E+00   -0.2814504E+00
 -0.3546487E+00   -0.3931304E+00   -0.3931291E+00   -0.3546459E+00   -0.2814485E+00   -0.1807021E+00   -0.6226824E-01    0.6226030E-01    0.1806938E+00    0.2814393E+00
  0.3546351E+00    0.3931162E+00    0.3119953E+00    0.2814557E+00    0.2233660E+00    0.1434120E+00    0.4941971E-01   -0.4941069E-01   -0.1434048E+00   -0.2233611E+00
 -0.2814525E+00   -0.3119922E+00   -0.3119908E+00   -0.2814498E+00   -0.2233599E+00   -0.1434072E+00   -0.4941812E-01    0.4940763E-01    0.1433969E+00    0.2233488E+00
  0.2814377E+00    0.3119786E+00    0.2003164E+00    0.1807094E+00    0.1434143E+00    0.9208119E-01    0.3173457E-01   -0.3171891E-01   -0.9206758E-01   -0.1434037E+00
 -0.1807025E+00   -0.2003136E+00   -0.2003153E+00   -0.1807068E+00   -0.1434101E+00   -0.9207704E-01   -0.3173305E-01    0.3171681E-01    0.9206160E-01    0.1433929E+00
  0.1806875E+00    0.2002944E+00    0.6902696E-01    0.6227475E-01    0.4942598E-01    0.3173940E-01    0.1094668E-01   -0.1091697E-01   -0.3171044E-01   -0.4939806E-01
 -0.6225170E-01   -0.6902518E-01   -0.6904040E-01   -0.6228329E-01   -0.4942879E-01   -0.3173843E-01   -0.1094499E-01    0.1091886E-01    0.3171314E-01    0.4940010E-01
  0.6225107E-01    0.6900847E-01    0.6903529E-01    0.2003229E+00    0.3120044E+00    0.3931465E+00    0.4358056E+00    0.4358046E+00    0.3931358E+00    0.3119611E+00
  0.2001965E+00    0.6870261E-01   -0.6915171E-01   -0.2003552E+00   -0.3119973E+00   -0.3931219E+00   -0.4357692E+00   -0.4357666E+00   -0.3931114E+00   -0.3119684E+00
 -0.2002905E+00   -0.6900964E-01    0.6227680E-01    0.1807127E+00    0.2814616E+00    0.3546603E+00    0.3931425E+00    0.3931385E+00    0.3546413E+00    0.2814071E+00
  0.1805896E+00    0.6206212E-01   -0.6239048E-01   -0.1807595E+00   -0.2814681E+00   -0.3546457E+00   -0.3931169E+00   -0.3931130E+00   -0.3546306E+00   -0.2814319E+00
 -0.1806855E+00   -0.6225274E-01    0.4942322E-01    0.1434140E+00    0.2233680E+00    0.2814577E+00    0.3119954E+00    0.3119889E+00    0.2814330E+00    0.2233119E+00
  0.1433118E+00    0.4928078E-01   -0.4951641E-01   -0.1434643E+00   -0.2233854E+00   -0.2814553E+00   -0.3119837E+00   -0.3119785E+00   -0.2814369E+00   -0.2233461E+00
 -0.1433929E+00   -0.4940336E-01    0.3173267E-01    0.9207784E-01    0.1434105E+00    0.1807049E+00    0.2003091E+00    0.2003014E+00    0.1806792E+00    0.1433600E+00
  0.9199838E-01    0.3163402E-01   -0.3180427E-01   -0.9212431E-01   -0.1434338E+00   -0.1807129E+00   -0.2003102E+00   -0.2003045E+00   -0.1806941E+00   -0.1433968E+00
 -0.9206315E-01   -0.3171784E-01    0.1093601E-01    0.3172892E-01    0.4941586E-01    0.6226475E-01    0.6901672E-01    0.6900921E-01    0.6224104E-01    0.4937371E-01
  0.3166888E-01    0.1086617E-01   -0.1099120E-01   -0.3176953E-01   -0.4944152E-01   -0.6227996E-01   -0.6902752E-01   -0.6902217E-01   -0.6226284E-01   -0.4940984E-01
 -0.3172079E-01   -0.1092700E-01   -0.1093056E-01   -0.3172510E-01   -0.4941502E-01   -0.6226917E-01   -0.6903000E-01   -0.6903669E-01   -0.6228947E-01   -0.4944885E-01
 -0.3177022E-01   -0.1098082E-01    0.1088690E-01    0.3169014E-01    0.4938918E-01    0.6224978E-01    0.6901294E-01    0.6901745E-01    0.6226397E-01    0.4941441E-01
  0.3172705E-01    0.1093358E-01   -0.3172613E-01   -0.9207284E-01   -0.1434080E+00   -0.1807068E+00   -0.2003187E+00   -0.2003243E+00   -0.1807235E+00   -0.1434347E+00
 -0.9210703E-01   -0.3176318E-01    0.3169084E-01    0.9204274E-01    0.1433832E+00    0.1806856E+00    0.2002982E+00    0.2003018E+00    0.1806966E+00    0.1434023E+00
  0.9207004E-01    0.3172476E-01   -0.4941621E-01   -0.1434076E+00   -0.2233628E+00   -0.2814552E+00   -0.3119985E+00   -0.3120031E+00   -0.2814686E+00   -0.2233837E+00
 -0.1434336E+00   -0.4944352E-01    0.4938626E-01    0.1433812E+00    0.2233395E+00    0.2814336E+00    0.3119768E+00    0.3119795E+00    0.2814418E+00    0.2233535E+00
  0.1434011E+00    0.4941113E-01   -0.6226892E-01   -0.1807045E+00   -0.2814532E+00   -0.3546528E+00   -0.3931381E+00   -0.3931418E+00   -0.3546635E+00   -0.2814696E+00
 -0.1807243E+00   -0.6228922E-01    0.6224265E-01    0.1806809E+00    0.2814314E+00    0.3546317E+00    0.3931164E+00    0.3931183E+00    0.3546376E+00    0.2814415E+00
  0.1806951E+00    0.6226050E-01   -0.6902564E-01   -0.2003125E+00   -0.3119929E+00   -0.3931347E+00   -0.4357951E+00   -0.4357981E+00   -0.3931433E+00   -0.3120059E+00
 -0.2003280E+00   -0.6904140E-01    0.6900272E-01    0.2002914E+00    0.3119729E+00    0.3931147E+00    0.4357742E+00    0.4357756E+00    0.3931189E+00    0.3119799E+00
  0.2003016E+00    0.6901581E-01   -0.6902632E-01   -0.2003129E+00   -0.3119930E+00   -0.3931344E+00   -0.4357943E+00   -0.4357966E+00   -0.3931412E+00   -0.3120032E+00
 -0.2003250E+00   -0.6903833E-01    0.6900545E-01    0.2002936E+00    0.3119744E+00    0.3931156E+00    0.4357746E+00    0.4357757E+00    0.3931187E+00    0.3119796E+00
  0.2003013E+00    0.6901562E-01   -0.6227053E-01   -0.1807056E+00   -0.2814534E+00   -0.3546519E+00   -0.3931357E+00   -0.3931376E+00   -0.3546573E+00   -0.2814616E+00
 -0.1807151E+00   -0.6227981E-01    0.6225117E-01    0.1806877E+00    0.2814361E+00    0.3546345E+00    0.3931176E+00    0.3931183E+00    0.3546369E+00    0.2814402E+00
  0.1806934E+00    0.6225876E-01   -0.4941868E-01   -0.1434095E+00   -0.2233635E+00   -0.2814541E+00   -0.3119950E+00   -0.3119965E+00   -0.2814584E+00   -0.2233701E+00
 -0.1434175E+00   -0.4942683E-01    0.4940139E-01    0.1433931E+00    0.2233476E+00    0.2814383E+00    0.3119787E+00    0.3119794E+00    0.2814404E+00    0.2233511E+00
  0.1433981E+00    0.4940777E-01   -0.3173058E-01   -0.9207631E-01   -0.1434098E+00   -0.1807062E+00   -0.2003147E+00   -0.2003159E+00   -0.1807096E+00   -0.1434151E+00
 -0.9208280E-01   -0.3173745E-01    0.3171402E-01    0.9206065E-01    0.1433950E+00    0.1806919E+00    0.2003005E+00    0.2003013E+00    0.1806941E+00    0.1433987E+00
  0.9206588E-01    0.3172057E-01   -0.1093699E-01   -0.3173046E-01   -0.4941865E-01   -0.6227012E-01   -0.6902685E-01   -0.6902762E-01   -0.6227251E-01   -0.4942272E-01
 -0.3173596E-01   -0.1094324E-01    0.1092055E-01    0.3171514E-01    0.4940466E-01    0.6225741E-01    0.6901497E-01    0.6901573E-01    0.6225997E-01    0.4940895E-01
  0.3172063E-01    0.1092686E-01    0.1092789E-01    0.3172142E-01    0.4940973E-01    0.6226125E-01    0.6901769E-01    0.6901731E-01    0.6225989E-01    0.4940670E-01
  0.3171610E-01    0.1092059E-01   -0.1094364E-01   -0.3173639E-01   -0.4942269E-01   -0.6227193E-01   -0.6902672E-01   -0.6902567E-01   -0.6226884E-01   -0.4941761E-01
 -0.3172962E-01   -0.1093630E-01    0.3172120E-01    0.9206698E-01    0.1434009E+00    0.1806977E+00    0.2003061E+00    0.2003064E+00    0.1806978E+00    0.1433993E+00
  0.9206249E-01    0.3171366E-01   -0.3173861E-01   -0.9208278E-01   -0.1434132E+00   -0.1807063E+00   -0.2003116E+00   -0.2003105E+00   -0.1807026E+00   -0.1434067E+00
 -0.9207405E-01   -0.3172883E-01    0.4940847E-01    0.1433996E+00    0.2233543E+00    0.2814457E+00    0.3119872E+00    0.3119883E+00    0.2814479E+00    0.2233550E+00
  0.1433964E+00    0.4940094E-01   -0.4942856E-01   -0.1434170E+00   -0.2233665E+00   -0.2814520E+00   -0.3119886E+00   -0.3119879E+00   -0.2814479E+00   -0.2233586E+00
 -0.1434071E+00   -0.4941785E-01    0.6225987E-01    0.1806951E+00    0.2814438E+00    0.3546434E+00    0.3931286E+00    0.3931309E+00    0.3546482E+00    0.2814473E+00
  0.1806942E+00    0.6225412E-01   -0.6228122E-01   -0.1807139E+00   -0.2814563E+00   -0.3546478E+00   -0.3931261E+00   -0.3931261E+00   -0.3546435E+00   -0.2814464E+00
 -0.1807028E+00   -0.6226964E-01    0.6901360E-01    0.2003006E+00    0.3119823E+00    0.3931247E+00    0.4357867E+00    0.4357900E+00    0.3931314E+00    0.3119880E+00
  0.2003060E+00    0.6902713E-01   -0.6903745E-01   -0.2003233E+00   -0.3119978E+00   -0.3931297E+00   -0.4357816E+00   -0.4357840E+00   -0.3931248E+00   -0.3119834E+00
 -0.2003111E+00   -0.6902588E-01   -0.2359017E-01   -0.1513184E-01   -0.1397398E-02    0.1237025E-01    0.2080113E-01    0.2075563E-01    0.1225471E-01   -0.1604183E-02
 -0.1550405E-01   -0.2446553E-01   -0.2409065E-01   -0.1548606E-01   -0.1541781E-02    0.1208978E-01    0.2059492E-01    0.2082269E-01    0.1215442E-01   -0.1595451E-02
 -0.1504197E-01   -0.2373348E-01   -0.1515765E-01   -0.6700987E-02    0.7035582E-02    0.2078346E-01    0.2923094E-01    0.2919275E-01    0.2066293E-01    0.6814300E-02
 -0.7036302E-02   -0.1562461E-01   -0.1560589E-01   -0.7038515E-02    0.6881124E-02    0.2056020E-01    0.2907421E-01    0.2925780E-01    0.2064927E-01    0.6904377E-02
 -0.6614769E-02   -0.1522953E-01   -0.1422108E-02    0.7030508E-02    0.2073597E-01    0.3448241E-01    0.4295098E-01    0.4288755E-01    0.3436713E-01    0.2054861E-01
  0.6707226E-02   -0.1773161E-02   -0.1801214E-02    0.6684719E-02    0.2059242E-01    0.3432119E-01    0.4278006E-01    0.4296641E-01    0.3442884E-01    0.2060858E-01
  0.7095297E-02   -0.1423285E-02    0.1235895E-01    0.2079338E-01    0.3449991E-01    0.4825734E-01    0.5669896E-01    0.5664061E-01    0.4814687E-01    0.3430088E-01
  0.2048787E-01    0.1206391E-01    0.1198264E-01    0.2045422E-01    0.3437627E-01    0.4805755E-01    0.5652744E-01    0.5674658E-01    0.4815121E-01    0.3435375E-01