 TITLE = "NAVIER-STOKES OUTPUT"
 VARIABLES = "X", "Y", "U", "V", "P", "Pex", "Vor"
 ZONE I =   21, J =   21, DATAPACKING = BLOCK, VARLOCATION=(3=CELLCENTERED, 4=CELLCENTERED,5=CELLCENTERED,6=CELLCENTERED, 7=CELLCENTERED)
  0.0000000E+00    0.3141593E+00    0.6283185E+00    0.9424778E+00    0.1256637E+01    0.1570796E+01    0.1884956E+01    0.2199115E+01    0.2513274E+01    0.2827433E+01
  0.3141593E+01    0.3455752E+01    0.3769911E+01    0.4084071E+01    0.4398230E+01    0.4712389E+01    0.5026548E+01    0.5340708E+01    0.5654867E+01    0.5969026E+01
  0.6283185E+01    0.0000000E+00    0.3141593E+00    0.6283185E+00    0.9424778E+00    0.1256637E+01    0.1570796E+01    0.1884956E+01    0.2199115E+01    0.2513274E+01
  0.2827433E+01    0.3141593E+01    0.3455752E+01    0.3769911E+01    0.4084071E+01    0.4398230E+01    0.4712389E+01    0.5026548E+01    0.5340708E+01    0.5654867E+01
  0.5969026E+01    0.6283185E+01    0.0000000E+00    0.3141593E+00    0.6283185E+00    0.9424778E+00    0.1256637E+01    0.1570796E+01    0.1884956E+01    0.2199115E+01
  0.2513274E+01    0.2827433E+01    0.3141593E+01    0.3455752E+01    0.3769911E+01    0.4084071E+01    0.4398230E+01    0.4712389E+01    0.5026548E+01    0.5340708E+01
  0.5654867E+01    0.5969026E+01    0.6283185E+01    0.0000000E+00    0.3141593E+00    0.6283185E+00    0.9424778E+00    0.1256637E+01    0.1570796E+01    0.1884956E+01
  0.2199115E+01    0.2513274E+01    0.2827433E+01    0.3141593E+01    0.3455752E+01    0.3769911E+01    0.4084071E+01    0.4398230E+01    0.4712389E+01    0.5026548E+01
  0.5340708E+01    0.5654867E+01    0.5969026E+01    0.6283185E+01    0.0000000E+00    0.3141593E+00    0.6283185E+00    0.9424778E+00    0.1256637E+01    0.1570796E+01
  0.1884956E+01    0.2199115E+01    0.2513274E+01    0.2827433E+01    0.3141593E+01    0.3455752E+01    0.3769911E+01    0.4084071E+01    0.4398230E+01    0.4712389E+01
  0.5026548E+01    0.5340708E+01    0.5654867E+01    0.5969026E+01    0.6283185E+01    0.0000000E+00    0.3141593E+00    0.6283185E+00    0.9424778E+00    0.1256637E+01
  0.1570796E+01    0.1884956E+01    0.2199115E+01    0.2513274E+01    0.2827433E+01    0.3141593E+01    0.3455752E+01    0.3769911E+01    0.4084071E+01    0.4398230E+01
  0.4712389E+01    0.5026548E+01    0.5340708E+01    0.5654867E+01    0.5969026E+01    0.6283185E+01    0.0000000E+00    0.3141593E+00    0.6283185E+00    0.9424778E+00
  0.1256637E+01    0.1570796E+01    0.1884956E+01    0.2199115E+01    0.2513274E+01    0.2827433E+01    0.3141593E+01    0.3455752E+01    0.3769911E+01    0.4084071E+01
  0.4398230E+01    0.4712389E+01    0.5026548E+01    0.5340708E+01    0.5654867E+01    0.5969026E+01    0.6283185E+01    0.0000000E+00    0.3141593E+00    0.6283185E+00
  0.9424778E+00    0.1256637E+01    0.1570796E+01    0.1884956E+01    0.2199115E+01    0.2513274E+01    0.2827433E+01    0.3141593E+01    0.3455752E+01    0.3769911E+01
  0.4084071E+01    0.4398230E+01    0.4712389E+01    0.5026548E+01    0.5340708E+01    0.5654867E+01    0.5969026E+01    0.6283185E+01    0.0000000E+00    0.3141593E+00
  0.6283185E+00    0.9424778E+00    0.1256637E+01    0.1570796E+01    0.1884956E+01    0.2199115E+01    0.2513274E+01    0.2827433E+01    0.3141593E+01    0.3455752E+01
  0.3769911E+01    0.4084071E+01    0.4398230E+01    0.4712389E+01    0.5026548E+01    0.5340708E+01    0.5654867E+01    0.5969026E+01    0.6283185E+01    0.0000000E+00
  0.3141593E+00    0.6283185E+00    0.9424778E+00    0.1256637E+01    0.1570796E+01    0.1884956E+01    0.2199115E+01    0.2513274E+01    0.2827433E+01    0.3141593E+01
  0.3455752E+01    0.3769911E+01    0.4084071E+01    0.4398230E+01    0.4712389E+01    0.5026548E+01    0.5340708E+01    0.5654867E+01    0.5969026E+01    0.6283185E+01
  0.0000000E+00    0.3141593E+00    0.6283185E+00    0.9424778E+00    0.1256637E+01    0.1570796E+01    0.1884956E+01    0.2199115E+01    0.2513274E+01    0.2827433E+01
  0.3141593E+01    0.3455752E+01    0.3769911E+01    0.4084071E+01    0.4398230E+01    0.4712389E+01    0.5026548E+01    0.5340708E+01    0.5654867E+01    0.5969026E+01
  0.6283185E+01    0.0000000E+00    0.3141593E+00    0.6283185E+00    0.9424778E+00    0.1256637E+01    0.1570796E+01    0.1884956E+01    0.2199115E+01    0.2513274E+01
  0.2827433E+01    0.3141593E+01    0.3455752E+01    0.3769911E+01    0.4084071E+01    0.4398230E+01    0.4712389E+01    0.5026548E+01    0.5340708E+01    0.5654867E+01
  0.5969026E+01    0.6283185E+01    0.0000000E+00    0.3141593E+00    0.6283185E+00    0.9424778E+00    0.1256637E+01    0.1570796E+01    0.1884956E+01    0.2199115E+01
  0.2513274E+01    0.2827433E+01    0.3141593E+01    0.3455752E+01    0.3769911E+01    0.4084071E+01    0.4398230E+01    0.4712389E+01    0.5026548E+01    0.5340708E+01
  0.5654867E+01    0.5969026E+01    0.6283185E+01    0.0000000E+00    0.3141593E+00    0.6283185E+00    0.9424778E+00    0.1256637E+01    0.1570796E+01    0.1884956E+01
  0.2199115E+01    0.2513274E+01    0.2827433E+01    0.3141593E+01    0.3455752E+01    0.3769911E+01    0.4084071E+01    0.4398230E+01    0.4712389E+01    0.5026548E+01
  0.5340708E+01    0.5654867E+01    0.5969026E+01    0.6283185E+01    0.0000000E+00    0.3141593E+00    0.6283185E+00    0.9424778E+00    0.1256637E+01    0.1570796E+01
  0.1884956E+01    0.2199115E+01    0.2513274E+01    0.2827433E+01    0.3141593E+01    0.3455752E+01    0.3769911E+01    0.4084071E+01    0.4398230E+01    0.4712389E+01
  0.5026548E+01    0.5340708E+01    0.5654867E+01    0.5969026E+01    0.6283185E+01    0.0000000E+00    0.3141593E+00    0.6283185E+00    0.9424778E+00    0.1256637E+01
  0.1570796E+01    0.1884956E+01    0.2199115E+01    0.2513274E+01    0.2827433E+01    0.3141593E+01    0.3455752E+01    0.3769911E+01    0.4084071E+01    0.4398230E+01
  0.4712389E+01    0.5026548E+01    0.5340708E+01    0.5654867E+01    0.5969026E+01    0.6283185E+01    0.0000000E+00    0.3141593E+00    0.6283185E+00    0.9424778E+00
  0.1256637E+01    0.1570796E+01    0.1884956E+01    0.2199115E+01    0.2513274E+01    0.2827433E+01    0.3141593E+01    0.3455752E+01    0.3769911E+01    0.4084071E+01
  0.4398230E+01    0.4712389E+01    0.5026548E+01    0.5340708E+01    0.5654867E+01    0.5969026E+01    0.6283185E+01    0.0000000E+00    0.3141593E+00    0.6283185E+00
  0.9424778E+00    0.1256637E+01    0.1570796E+01    0.1884956E+01    0.2199115E+01    0.2513274E+01    0.2827433E+01    0.3141593E+01    0.3455752E+01    0.3769911E+01
  0.4084071E+01    0.4398230E+01    0.4712389E+01    0.5026548E+01    0.5340708E+01    0.5654867E+01    0.5969026E+01    0.6283185E+01    0.0000000E+00    0.3141593E+00
  0.6283185E+00    0.9424778E+00    0.1256637E+01    0.1570796E+01    0.1884956E+01    0.2199115E+01    0.2513274E+01    0.2827433E+01    0.3141593E+01    0.3455752E+01
  0.3769911E+01    0.4084071E+01    0.4398230E+01    0.4712389E+01    0.5026548E+01    0.5340708E+01    0.5654867E+01    0.5969026E+01    0.6283185E+01    0.0000000E+00
  0.3141593E+00    0.6283185E+00    0.9424778E+00    0.1256637E+01    0.1570796E+01    0.1884956E+01    0.2199115E+01    0.2513274E+01    0.2827433E+01    0.3141593E+01
  0.3455752E+01    0.3769911E+01    0.4084071E+01    0.4398230E+01    0.4712389E+01    0.5026548E+01    0.5340708E+01    0.5654867E+01    0.5969026E+01    0.6283185E+01
  0.0000000E+00    0.3141593E+00    0.6283185E+00    0.9424778E+00    0.1256637E+01    0.1570796E+01    0.1884956E+01    0.2199115E+01    0.2513274E+01    0.2827433E+01
  0.3141593E+01    0.3455752E+01    0.3769911E+01    0.4084071E+01    0.4398230E+01    0.4712389E+01    0.5026548E+01    0.5340708E+01    0.5654867E+01    0.5969026E+01
  0.6283185E+01    0.0000000E+00    0.0000000E+00    0.0000000E+00    0.0000000E+00    0.0000000E+00    0.0000000E+00    0.0000000E+00    0.0000000E+00    0.0000000E+00
  0.0000000E+00    0.0000000E+00    0.0000000E+00    0.0000000E+00    0.0000000E+00    0.0000000E+00    0.0000000E+00    0.0000000E+00    0.0000000E+00    0.0000000E+00
  0.0000000E+00    0.0000000E+00    0.3141593E+00    0.3141593E+00    0.3141593E+00    0.3141593E+00    0.3141593E+00    0.3141593E+00    0.3141593E+00    0.3141593E+00
  0.3141593E+00    0.3141593E+00    0.3141593E+00    0.3141593E+00    0.3141593E+00    0.3141593E+00    0.3141593E+00    0.3141593E+00    0.3141593E+00    0.3141593E+00
  0.3141593E+00    0.3141593E+00    0.3141593E+00    0.6283185E+00    0.6283185E+00    0.6283185E+00    0.6283185E+00    0.6283185E+00    0.6283185E+00    0.6283185E+00
  0.6283185E+00    0.6283185E+00    0.6283185E+00    0.6283185E+00    0.6283185E+00    0.6283185E+00    0.6283185E+00    0.6283185E+00    0.6283185E+00    0.6283185E+00
  0.6283185E+00    0.6283185E+00    0.6283185E+00    0.6283185E+00    0.9424778E+00    0.9424778E+00    0.9424778E+00    0.9424778E+00    0.9424778E+00    0.9424778E+00
  0.9424778E+00    0.9424778E+00    0.9424778E+00    0.9424778E+00    0.9424778E+00    0.9424778E+00    0.9424778E+00    0.9424778E+00    0.9424778E+00    0.9424778E+00
  0.9424778E+00    0.9424778E+00    0.9424778E+00    0.9424778E+00    0.9424778E+00    0.1256637E+01    0.1256637E+01    0.1256637E+01    0.1256637E+01    0.1256637E+01
  0.1256637E+01    0.1256637E+01    0.1256637E+01    0.1256637E+01    0.1256637E+01    0.1256637E+01    0.1256637E+01    0.1256637E+01    0.1256637E+01    0.1256637E+01
  0.1256637E+01    0.1256637E+01    0.1256637E+01    0.1256637E+01    0.1256637E+01    0.1256637E+01    0.1570796E+01    0.1570796E+01    0.1570796E+01    0.1570796E+01
  0.1570796E+01    0.1570796E+01    0.1570796E+01    0.1570796E+01    0.1570796E+01    0.1570796E+01    0.1570796E+01    0.1570796E+01    0.1570796E+01    0.1570796E+01
  0.1570796E+01    0.1570796E+01    0.1570796E+01    0.1570796E+01    0.1570796E+01    0.1570796E+01    0.1570796E+01    0.1884956E+01    0.1884956E+01    0.1884956E+01
  0.1884956E+01    0.1884956E+01    0.1884956E+01    0.1884956E+01    0.1884956E+01    0.1884956E+01    0.1884956E+01    0.1884956E+01    0.1884956E+01    0.1884956E+01
  0.1884956E+01    0.1884956E+01    0.1884956E+01    0.1884956E+01    0.1884956E+01    0.1884956E+01    0.1884956E+01    0.1884956E+01    0.2199115E+01    0.2199115E+01
  0.2199115E+01    0.2199115E+01    0.2199115E+01    0.2199115E+01    0.2199115E+01    0.2199115E+01    0.2199115E+01    0.2199115E+01    0.2199115E+01    0.2199115E+01
  0.2199115E+01    0.2199115E+01    0.2199115E+01    0.2199115E+01    0.2199115E+01    0.2199115E+01    0.2199115E+01    0.2199115E+01    0.2199115E+01    0.2513274E+01
  0.2513274E+01    0.2513274E+01    0.2513274E+01    0.2513274E+01    0.2513274E+01    0.2513274E+01    0.2513274E+01    0.2513274E+01    0.2513274E+01    0.2513274E+01
  0.2513274E+01    0.2513274E+01    0.2513274E+01    0.2513274E+01    0.2513274E+01    0.2513274E+01    0.2513274E+01    0.2513274E+01    0.2513274E+01    0.2513274E+01
  0.2827433E+01    0.2827433E+01    0.2827433E+01    0.2827433E+01    0.2827433E+01    0.2827433E+01    0.2827433E+01    0.2827433E+01    0.2827433E+01    0.2827433E+01
  0.2827433E+01    0.2827433E+01    0.2827433E+01    0.2827433E+01    0.2827433E+01    0.2827433E+01    0.2827433E+01    0.2827433E+01    0.2827433E+01    0.2827433E+01
  0.2827433E+01    0.3141593E+01    0.3141593E+01    0.3141593E+01    0.3141593E+01    0.3141593E+01    0.3141593E+01    0.3141593E+01    0.3141593E+01    0.3141593E+01
  0.3141593E+01    0.3141593E+01    0.3141593E+01    0.3141593E+01    0.3141593E+01    0.3141593E+01    0.3141593E+01    0.3141593E+01    0.3141593E+01    0.3141593E+01
  0.3141593E+01    0.3141593E+01    0.3455752E+01    0.3455752E+01    0.3455752E+01    0.3455752E+01    0.3455752E+01    0.3455752E+01    0.3455752E+01    0.3455752E+01
  0.3455752E+01    0.3455752E+01    0.3455752E+01    0.3455752E+01    0.3455752E+01    0.3455752E+01    0.3455752E+01    0.3455752E+01    0.3455752E+01    0.3455752E+01
  0.3455752E+01    0.3455752E+01    0.3455752E+01    0.3769911E+01    0.3769911E+01    0.3769911E+01    0.3769911E+01    0.3769911E+01    0.3769911E+01    0.3769911E+01
  0.3769911E+01    0.3769911E+01    0.3769911E+01    0.3769911E+01    0.3769911E+01    0.3769911E+01    0.3769911E+01    0.3769911E+01    0.3769911E+01    0.3769911E+01
  0.3769911E+01    0.3769911E+01    0.3769911E+01    0.3769911E+01    0.4084071E+01    0.4084071E+01    0.4084071E+01    0.4084071E+01    0.4084071E+01    0.4084071E+01
  0.4084071E+01    0.4084071E+01    0.4084071E+01    0.4084071E+01    0.4084071E+01    0.4084071E+01    0.4084071E+01    0.4084071E+01    0.4084071E+01    0.4084071E+01
  0.4084071E+01    0.4084071E+01    0.4084071E+01    0.4084071E+01    0.4084071E+01    0.4398230E+01    0.4398230E+01    0.4398230E+01    0.4398230E+01    0.4398230E+01
  0.4398230E+01    0.4398230E+01    0.4398230E+01    0.4398230E+01    0.4398230E+01    0.4398230E+01    0.4398230E+01    0.4398230E+01    0.4398230E+01    0.4398230E+01
  0.4398230E+01    0.4398230E+01    0.4398230E+01    0.4398230E+01    0.4398230E+01    0.4398230E+01    0.4712389E+01    0.4712389E+01    0.4712389E+01    0.4712389E+01
  0.4712389E+01    0.4712389E+01    0.4712389E+01    0.4712389E+01    0.4712389E+01    0.4712389E+01    0.4712389E+01    0.4712389E+01    0.4712389E+01    0.4712389E+01
  0.4712389E+01    0.4712389E+01    0.4712389E+01    0.4712389E+01    0.4712389E+01    0.4712389E+01    0.4712389E+01    0.5026548E+01    0.5026548E+01    0.5026548E+01
  0.5026548E+01    0.5026548E+01    0.5026548E+01    0.5026548E+01    0.5026548E+01    0.5026548E+01    0.5026548E+01    0.5026548E+01    0.5026548E+01    0.5026548E+01
  0.5026548E+01    0.5026548E+01    0.5026548E+01    0.5026548E+01    0.5026548E+01    0.5026548E+01    0.5026548E+01    0.5026548E+01    0.5340708E+01    0.5340708E+01
  0.5340708E+01    0.5340708E+01    0.5340708E+01    0.5340708E+01    0.5340708E+01    0.5340708E+01    0.5340708E+01    0.5340708E+01    0.5340708E+01    0.5340708E+01
  0.5340708E+01    0.5340708E+01    0.5340708E+01    0.5340708E+01    0.5340708E+01    0.5340708E+01    0.5340708E+01    0.5340708E+01    0.5340708E+01    0.5654867E+01
  0.5654867E+01    0.5654867E+01    0.5654867E+01    0.5654867E+01    0.5654867E+01    0.5654867E+01    0.5654867E+01    0.5654867E+01    0.5654867E+01    0.5654867E+01
  0.5654867E+01    0.5654867E+01    0.5654867E+01    0.5654867E+01    0.5654867E+01    0.5654867E+01    0.5654867E+01    0.5654867E+01    0.5654867E+01    0.5654867E+01
  0.5969026E+01    0.5969026E+01    0.5969026E+01    0.5969026E+01    0.5969026E+01    0.5969026E+01    0.5969026E+01    0.5969026E+01    0.5969026E+01    0.5969026E+01
  0.5969026E+01    0.5969026E+01    0.5969026E+01    0.5969026E+01    0.5969026E+01    0.5969026E+01    0.5969026E+01    0.5969026E+01    0.5969026E+01    0.5969026E+01
  0.5969026E+01    0.6283185E+01    0.6283185E+01    0.6283185E+01    0.6283185E+01    0.6283185E+01    0.6283185E+01    0.6283185E+01    0.6283185E+01    0.6283185E+01
  0.6283185E+01    0.6283185E+01    0.6283185E+01    0.6283185E+01    0.6283185E+01    0.6283185E+01    0.6283185E+01    0.6283185E+01    0.6283185E+01    0.6283185E+01
  0.6283185E+01    0.6283185E+01   -0.1048634E-01   -0.9460276E-02   -0.7508223E-02   -0.4821228E-02   -0.1662373E-02    0.1659160E-02    0.4818058E-02    0.7504773E-02
  0.9455764E-02    0.1048648E-01    0.1049094E-01    0.9463137E-02    0.7509687E-02    0.4822066E-02    0.1662958E-02   -0.1659390E-02   -0.4818710E-02   -0.7505967E-02
 -0.9459025E-02   -0.1048547E-01   -0.3043080E-01   -0.2745184E-01   -0.2178577E-01   -0.1398716E-01   -0.4819415E-02    0.4820076E-02    0.1398765E-01    0.2178587E-01
  0.2745144E-01    0.3043144E-01    0.3043267E-01    0.2745343E-01    0.2178682E-01    0.1398789E-01    0.4820077E-02   -0.4819635E-02   -0.1398735E-01   -0.2178562E-01
 -0.2745151E-01   -0.3043005E-01   -0.4739634E-01   -0.4275625E-01   -0.3393088E-01   -0.2178409E-01   -0.7504910E-02    0.7508938E-02    0.2178774E-01    0.3393373E-01
  0.4275811E-01    0.4739736E-01    0.4739700E-01    0.4275685E-01    0.3393135E-01    0.2178449E-01    0.7505485E-02   -0.7508155E-02   -0.2178685E-01   -0.3393268E-01
 -0.4275694E-01   -0.4739588E-01   -0.5972246E-01   -0.5387549E-01   -0.4275477E-01   -0.2744888E-01   -0.9456065E-02    0.9462441E-02    0.2745465E-01    0.4275933E-01
  0.5387844E-01    0.5972353E-01    0.5972241E-01    0.5387534E-01    0.4275460E-01    0.2744879E-01    0.9456368E-02   -0.9461717E-02   -0.2745371E-01   -0.4275812E-01
 -0.5387715E-01   -0.5972238E-01   -0.6620266E-01   -0.5972117E-01   -0.4739372E-01   -0.3042701E-01   -0.1048185E-01    0.1048936E-01    0.3043374E-01    0.4739895E-01
  0.5972436E-01    0.6620341E-01    0.6620197E-01    0.5972033E-01    0.4739289E-01    0.3042637E-01    0.1048169E-01   -0.1048906E-01   -0.3043312E-01   -0.4739810E-01
 -0.5972354E-01   -0.6620289E-01   -0.6620253E-01   -0.5972101E-01   -0.4739357E-01   -0.3042689E-01   -0.1048182E-01    0.1048928E-01    0.3043353E-01    0.4739859E-01
  0.5972384E-01    0.6620279E-01    0.6620124E-01    0.5971954E-01    0.4739214E-01    0.3042567E-01    0.1048104E-01   -0.1048956E-01   -0.3043352E-01   -0.4739841E-01
 -0.5972368E-01   -0.6620298E-01   -0.5972223E-01   -0.5387506E-01   -0.4275429E-01   -0.2744848E-01   -0.9455867E-02    0.9462336E-02    0.2745416E-01    0.4275840E-01
  0.5387707E-01    0.5972170E-01    0.5972022E-01    0.5387301E-01    0.4275231E-01    0.2744665E-01    0.9454463E-02   -0.9463303E-02   -0.2745492E-01   -0.4275900E-01
 -0.5387768E-01   -0.5972259E-01   -0.4739567E-01   -0.4275545E-01   -0.3392999E-01   -0.2178328E-01   -0.7504320E-02    0.7509120E-02    0.2178735E-01    0.3393272E-01
  0.4275639E-01    0.4739459E-01    0.4739337E-01    0.4275294E-01    0.3392749E-01    0.2178095E-01    0.7502347E-02   -0.7510791E-02   -0.2178884E-01   -0.3393412E-01
 -0.4275788E-01   -0.4739627E-01   -0.3043011E-01   -0.2745078E-01   -0.2178443E-01   -0.1398576E-01   -0.4818204E-02    0.4820873E-02    0.1398790E-01    0.2178549E-01
  0.2745042E-01    0.3042817E-01    0.3042724E-01    0.2744781E-01    0.2178157E-01    0.1398305E-01    0.4815726E-02   -0.4823086E-02   -0.1399000E-01   -0.2178761E-01
 -0.2745264E-01   -0.3043081E-01   -0.1048609E-01   -0.9459109E-02   -0.7506469E-02   -0.4819244E-02   -0.1660446E-02    0.1660783E-02    0.4819237E-02    0.7505738E-02
  0.9457438E-02    0.1048319E-01    0.1048259E-01    0.9455865E-02    0.7503389E-02    0.4816247E-02    0.1657663E-02   -0.1663374E-02   -0.4821838E-02   -0.7508307E-02
 -0.9460003E-02   -0.1048584E-01    0.1048525E-01    0.9458656E-02    0.7506262E-02    0.4818990E-02    0.1659868E-02   -0.1661899E-02   -0.4821188E-02   -0.7508691E-02
 -0.9461334E-02   -0.1048802E-01   -0.1048818E-01   -0.9461793E-02   -0.7509401E-02   -0.4822035E-02   -0.1662770E-02    0.1659033E-02    0.4818328E-02    0.7505853E-02
  0.9458444E-02    0.1048520E-01    0.3042899E-01    0.2745015E-01    0.2178408E-01    0.1398545E-01    0.4817606E-02   -0.4821981E-02   -0.1398970E-01   -0.2178820E-01
 -0.2745405E-01   -0.3043261E-01   -0.3043238E-01   -0.2745336E-01   -0.2178710E-01   -0.1398839E-01   -0.4820550E-02    0.4819077E-02    0.1398676E-01    0.2178515E-01
  0.2745094E-01    0.3042916E-01    0.4739428E-01    0.4275459E-01    0.3392944E-01    0.2178276E-01    0.7503616E-02   -0.7510155E-02   -0.2178897E-01   -0.3393509E-01
 -0.4275943E-01   -0.4739834E-01   -0.4739775E-01   -0.4275758E-01   -0.3393220E-01   -0.2178555E-01   -0.7506390E-02    0.7507345E-02    0.2178598E-01    0.3393212E-01
  0.4275662E-01    0.4739576E-01    0.5972129E-01    0.5387409E-01    0.4275344E-01    0.2744766E-01    0.9454970E-02   -0.9463404E-02   -0.2745559E-01   -0.4276028E-01
 -0.5387939E-01   -0.5972454E-01   -0.5972349E-01   -0.5387643E-01   -0.4275582E-01   -0.2745006E-01   -0.9457456E-02    0.9460685E-02    0.2745275E-01    0.4275748E-01
  0.5387664E-01    0.5972211E-01    0.6620063E-01    0.5971945E-01    0.4739218E-01    0.3042561E-01    0.1048056E-01   -0.1049055E-01   -0.3043485E-01   -0.4740006E-01
 -0.5972547E-01   -0.6620451E-01   -0.6620314E-01   -0.5972153E-01   -0.4739405E-01   -0.3042755E-01   -0.1048279E-01    0.1048812E-01    0.3043223E-01    0.4739731E-01
  0.5972285E-01    0.6620186E-01    0.6620041E-01    0.5971912E-01    0.4739175E-01    0.3042509E-01    0.1048000E-01   -0.1049104E-01   -0.3043524E-01   -0.4740027E-01
 -0.5972532E-01   -0.6620409E-01   -0.6620248E-01   -0.5972054E-01   -0.4739301E-01   -0.3042660E-01   -0.1048179E-01    0.1048890E-01    0.3043273E-01    0.4739783E-01
  0.5972330E-01    0.6620277E-01    0.5972098E-01    0.5387322E-01    0.4275220E-01    0.2744619E-01    0.9453435E-02   -0.9464808E-02   -0.2745664E-01   -0.4276075E-01
 -0.5387907E-01   -0.5972329E-01   -0.5972135E-01   -0.5387368E-01   -0.4275280E-01   -0.2744706E-01   -0.9454762E-02    0.9462880E-02    0.2745442E-01    0.4275855E-01
  0.5387706E-01    0.5972189E-01    0.4739353E-01    0.4275326E-01    0.3392756E-01    0.2178058E-01    0.7501377E-02   -0.7512249E-02   -0.2179053E-01   -0.3393577E-01
 -0.4275896E-01   -0.4739631E-01   -0.4739428E-01   -0.4275329E-01   -0.3392747E-01   -0.2178086E-01   -0.7502331E-02    0.7510752E-02    0.2178860E-01    0.3393364E-01
  0.4275719E-01    0.4739495E-01    0.3042828E-01    0.2744866E-01    0.2178197E-01    0.1398292E-01    0.4814980E-02   -0.4824353E-02   -0.1399154E-01   -0.2178911E-01
 -0.2745346E-01   -0.3042997E-01   -0.3042789E-01   -0.2744767E-01   -0.2178110E-01   -0.1398277E-01   -0.4815376E-02    0.4823304E-02    0.1398974E-01    0.2178739E-01
  0.2745233E-01    0.3043019E-01    0.1048510E-01    0.9457335E-02    0.7504219E-02    0.4816534E-02    0.1657368E-02   -0.1664125E-02   -0.4822916E-02   -0.7509716E-02
 -0.9461168E-02   -0.1048494E-01   -0.1048240E-01   -0.9455128E-02   -0.7502747E-02   -0.4815999E-02   -0.1657224E-02    0.1663498E-02    0.4821495E-02    0.7508280E-02
  0.9459586E-02    0.1048495E-01    0.1048309E-01    0.3042604E-01    0.4738957E-01    0.5971274E-01    0.6618889E-01    0.6618415E-01    0.5969862E-01    0.4736736E-01
  0.3039794E-01    0.1046252E-01   -0.1051799E-01   -0.3046027E-01   -0.4742176E-01   -0.5974219E-01   -0.6621843E-01   -0.6621399E-01   -0.5972889E-01   -0.4740094E-01
 -0.3043301E-01   -0.1048668E-01    0.9456661E-02    0.2744739E-01    0.4275010E-01    0.5386657E-01    0.5970840E-01    0.5970363E-01    0.5385263E-01    0.4272838E-01
  0.2742038E-01    0.9429277E-02   -0.9490521E-02   -0.2748052E-01   -0.4278148E-01   -0.5389609E-01   -0.5973740E-01   -0.5973299E-01   -0.5388308E-01   -0.4276095E-01
 -0.2745409E-01   -0.9460912E-02    0.7503885E-02    0.2178115E-01    0.3392495E-01    0.4274637E-01    0.4738169E-01    0.4737704E-01    0.4273287E-01    0.3390395E-01
  0.2175491E-01    0.7475486E-02   -0.7537659E-02   -0.2181387E-01   -0.3395599E-01   -0.4277590E-01   -0.4741063E-01   -0.4740637E-01   -0.4276345E-01   -0.3393631E-01
 -0.2178853E-01   -0.7509186E-02    0.4815917E-02    0.1398202E-01    0.2177803E-01    0.2744064E-01    0.3041539E-01    0.3041102E-01    0.2742790E-01    0.2175821E-01
  0.1395724E-01    0.4788827E-02   -0.4849647E-02   -0.1401456E-01   -0.2180902E-01   -0.2747036E-01   -0.3044459E-01   -0.3044062E-01   -0.2745873E-01   -0.2179060E-01
 -0.1399089E-01   -0.4822952E-02    0.1655922E-02    0.4813493E-02    0.7498375E-02    0.9447638E-02    0.1047036E-01    0.1046633E-01    0.9435946E-02    0.7480216E-02
  0.4790775E-02    0.1631084E-02   -0.1689467E-02   -0.4845921E-02   -0.7529504E-02   -0.9477696E-02   -0.1050001E-01   -0.1049641E-01   -0.9467070E-02   -0.7512673E-02
 -0.4824378E-02   -0.1665093E-02   -0.1666668E-02   -0.4826870E-02   -0.7516103E-02   -0.9471220E-02   -0.1050097E-01   -0.1050460E-01   -0.9481719E-02   -0.7532375E-02
 -0.4847217E-02   -0.1688897E-02    0.1633459E-02    0.4794569E-02    0.7484884E-02    0.9440847E-02    0.1047086E-01    0.1047412E-01    0.9450349E-02    0.7499872E-02
  0.4813835E-02    0.1655239E-02   -0.4826799E-02   -0.1399545E-01   -0.2179570E-01   -0.2746409E-01   -0.3044582E-01   -0.3044901E-01   -0.2747337E-01   -0.2181008E-01
 -0.1401335E-01   -0.4846307E-02    0.4793776E-02    0.1396325E-01    0.2176436E-01    0.2743335E-01    0.3041527E-01    0.3041814E-01    0.2744173E-01    0.2177758E-01
  0.1398017E-01    0.4812889E-02   -0.7514988E-02   -0.2179473E-01   -0.3394268E-01   -0.4276972E-01   -0.4741182E-01   -0.4741464E-01   -0.4277787E-01   -0.3395528E-01
 -0.2181044E-01   -0.7532105E-02    0.7482167E-02    0.2176257E-01    0.3391113E-01    0.4273865E-01    0.4738089E-01    0.4738337E-01    0.4274603E-01    0.3392278E-01
  0.2177735E-01    0.7498849E-02   -0.9467978E-02   -0.2746123E-01   -0.4276792E-01   -0.5388979E-01   -0.5973821E-01   -0.5974071E-01   -0.5389700E-01   -0.4277908E-01
 -0.2747518E-01   -0.9483259E-02    0.9435492E-02    0.2742913E-01    0.4273631E-01    0.5385853E-01    0.5970698E-01    0.5970926E-01    0.5386510E-01    0.4274662E-01
  0.2744235E-01    0.9450378E-02   -0.1049510E-01   -0.3044044E-01   -0.4740766E-01   -0.5973592E-01   -0.6621847E-01   -0.6622071E-01   -0.5974245E-01   -0.4741779E-01
 -0.3045304E-01   -0.1050885E-01    0.1046252E-01    0.3040831E-01    0.4737593E-01    0.5970443E-01    0.6618706E-01    0.6618913E-01    0.5971046E-01    0.4738542E-01
  0.3042040E-01    0.1047613E-01   -0.1049539E-01   -0.3044064E-01   -0.4740776E-01   -0.5973590E-01   -0.6621826E-01   -0.6622039E-01   -0.5974205E-01   -0.4741729E-01
 -0.3045257E-01   -0.1050848E-01    0.1046282E-01    0.3040841E-01    0.4737582E-01    0.5970422E-01    0.6618669E-01    0.6618863E-01    0.5971002E-01    0.4738495E-01
  0.3041987E-01    0.1047563E-01   -0.9468725E-02   -0.2746174E-01   -0.4276810E-01   -0.5388955E-01   -0.5973755E-01   -0.5973968E-01   -0.5389566E-01   -0.4277759E-01
 -0.2747373E-01   -0.9482011E-02    0.9436356E-02    0.2742949E-01    0.4273615E-01    0.5385788E-01    0.5970593E-01    0.5970799E-01    0.5386375E-01    0.4274528E-01
  0.2744118E-01    0.9449403E-02   -0.7516338E-02   -0.2179562E-01   -0.3394296E-01   -0.4276935E-01   -0.4741082E-01   -0.4741300E-01   -0.4277576E-01   -0.3395296E-01
 -0.2180811E-01   -0.7530086E-02    0.7483522E-02    0.2176317E-01    0.3391092E-01    0.4273759E-01    0.4737927E-01    0.4738142E-01    0.4274384E-01    0.3392072E-01
  0.2177561E-01    0.7497393E-02   -0.4828564E-02   -0.1399667E-01   -0.2179621E-01   -0.2746380E-01   -0.3044465E-01   -0.3044708E-01   -0.2747084E-01   -0.2180716E-01
 -0.1401045E-01   -0.4843841E-02    0.4795535E-02    0.1396399E-01    0.2176397E-01    0.2743205E-01    0.3041318E-01    0.3041549E-01    0.2743898E-01    0.2177488E-01
  0.1397762E-01    0.4810683E-02   -0.1668486E-02   -0.4828170E-02   -0.7516654E-02   -0.9470877E-02   -0.1049969E-01   -0.1050246E-01   -0.9478860E-02   -0.7529105E-02
 -0.4843959E-02   -0.1686053E-02    0.1635457E-02    0.4795400E-02    0.7484526E-02    0.9439362E-02    0.1046844E-01    0.1047121E-01    0.9447220E-02    0.7496745E-02
  0.4811059E-02    0.1652915E-02    0.1653755E-02    0.4812058E-02    0.7497788E-02    0.9447959E-02    0.1047158E-01    0.1046845E-01    0.9438781E-02    0.7483426E-02
  0.4794019E-02    0.1633875E-02   -0.1687574E-02   -0.4845093E-02   -0.7529878E-02   -0.9479302E-02   -0.1050243E-01   -0.1049935E-01   -0.9470363E-02   -0.7515819E-02
 -0.4827173E-02   -0.1667568E-02    0.4813955E-02    0.1398067E-01    0.2177740E-01    0.2744080E-01    0.3041641E-01    0.3041280E-01    0.2743028E-01    0.2176094E-01
  0.1395984E-01    0.4790846E-02   -0.4848198E-02   -0.1401399E-01   -0.2180956E-01   -0.2747184E-01   -0.3044685E-01   -0.3044346E-01   -0.2746168E-01   -0.2179350E-01
 -0.1399370E-01   -0.4825413E-02    0.7502600E-02    0.2178031E-01    0.3392467E-01    0.4274671E-01    0.4738265E-01    0.4737856E-01    0.4273480E-01    0.3390593E-01
  0.2175640E-01    0.7475992E-02   -0.7537133E-02   -0.2181376E-01   -0.3395644E-01   -0.4277713E-01   -0.4741252E-01   -0.4740850E-01   -0.4276582E-01   -0.3393871E-01
 -0.2179056E-01   -0.7510890E-02    0.9455699E-02    0.2744709E-01    0.4275031E-01    0.5386716E-01    0.5970932E-01    0.5970487E-01    0.5385402E-01    0.4272947E-01
  0.2742044E-01    0.9425913E-02   -0.9491303E-02   -0.2748078E-01   -0.4278165E-01   -0.5389702E-01   -0.5973852E-01   -0.5973403E-01   -0.5388482E-01   -0.4276237E-01
 -0.2745510E-01   -0.9462284E-02    0.1048324E-01    0.3042662E-01    0.4739036E-01    0.5971356E-01    0.6618980E-01    0.6618507E-01    0.5969957E-01    0.4736811E-01
  0.3039751E-01    0.1044891E-01   -0.1051898E-01   -0.3046050E-01   -0.4742110E-01   -0.5974271E-01   -0.6621882E-01   -0.6621339E-01   -0.5972995E-01   -0.4740139E-01
 -0.3043264E-01   -0.1048805E-01    0.1943393E-03    0.4075363E-03    0.7548033E-03    0.1079431E-02    0.1258159E-02    0.1272494E-02    0.1076508E-02    0.7194196E-03
  0.3981949E-03    0.1527678E-03    0.1592633E-03    0.4545580E-03    0.7894593E-03    0.1051088E-02    0.1351936E-02    0.1343886E-02    0.1060702E-02    0.8640350E-03
  0.5282754E-03    0.2091785E-03    0.4038994E-03    0.6043311E-03    0.9364417E-03    0.1257361E-02    0.1442927E-02    0.1448992E-02    0.1254542E-02    0.9116650E-03
  0.5963333E-03    0.3963141E-03    0.3692301E-03    0.6267004E-03    0.9726821E-03    0.1248913E-02    0.1513123E-02    0.1529194E-02    0.1270777E-02    0.1024324E-02
  0.7228775E-03    0.4484694E-03    0.7652010E-03    0.9482127E-03    0.1263624E-02    0.1589208E-02    0.1773804E-02    0.1767275E-02    0.1583332E-02    0.1243292E-02
  0.9255531E-03    0.7476919E-03    0.7111597E-03    0.9398095E-03    0.1299632E-02    0.1572976E-02    0.1810161E-02    0.1855704E-02    0.1598037E-02    0.1319495E-02
  0.1061212E-02    0.8044830E-03    0.1090104E-02    0.1275289E-02    0.1598026E-02    0.1923359E-02    0.2096232E-02    0.2099918E-02    0.1917819E-02    0.1563742E-02
  0.1265425E-02    0.1090298E-02    0.1036080E-02    0.1274534E-02    0.1625515E-02    0.1881970E-02    0.2139458E-02    0.2177110E-02    0.1902143E-02    0.1652572E-02