 TITLE = "NAVIER-STOKES OUTPUT"
 VARIABLES = "X", "Y", "U", "V", "P", "Pex", "Vor"
 ZONE I =   21, J =   21, DATAPACKING = BLOCK, VARLOCATION=(3=CELLCENTERED, 4=CELLCENTERED,5=CELLCENTERED,6=CELLCENTERED, 7=CELLCENTERED)
  0.0000000E+00    0.3141593E+00    0.6283185E+00    0.9424778E+00    0.1256637E+01    0.1570796E+01    0.1884956E+01    0.2199115E+01    0.2513274E+01    0.2827433E+01
  0.3141593E+01    0.3455752E+01    0.3769911E+01    0.4084071E+01    0.4398230E+01    0.4712389E+01    0.5026548E+01    0.5340708E+01    0.5654867E+01    0.5969026E+01
  0.6283185E+01    0.0000000E+00    0.3141593E+00    0.6283185E+00    0.9424778E+00    0.1256637E+01    0.1570796E+01    0.1884956E+01    0.2199115E+01    0.2513274E+01
  0.2827433E+01    0.3141593E+01    0.3455752E+01    0.3769911E+01    0.4084071E+01    0.4398230E+01    0.4712389E+01    0.5026548E+01    0.5340708E+01    0.5654867E+01
  0.5969026E+01    0.6283185E+01    0.0000000E+00    0.3141593E+00    0.6283185E+00    0.9424778E+00    0.1256637E+01    0.1570796E+01    0.1884956E+01    0.2199115E+01
  0.2513274E+01    0.2827433E+01    0.3141593E+01    0.3455752E+01    0.3769911E+01    0.4084071E+01    0.4398230E+01    0.4712389E+01    0.5026548E+01    0.5340708E+01
  0.5654867E+01    0.5969026E+01    0.6283185E+01    0.0000000E+00    0.3141593E+00    0.6283185E+00    0.9424778E+00    0.1256637E+01    0.1570796E+01    0.1884956E+01
  0.2199115E+01    0.2513274E+01    0.2827433E+01    0.3141593E+01    0.3455752E+01    0.3769911E+01    0.4084071E+01    0.4398230E+01    0.4712389E+01    0.5026548E+01
  0.5340708E+01    0.5654867E+01    0.5969026E+01    0.6283185E+01    0.0000000E+00    0.3141593E+00    0.6283185E+00    0.9424778E+00    0.1256637E+01    0.1570796E+01
  0.1884956E+01    0.2199115E+01    0.2513274E+01    0.2827433E+01    0.3141593E+01    0.3455752E+01    0.3769911E+01    0.4084071E+01    0.4398230E+01    0.4712389E+01
  0.5026548E+01    0.5340708E+01    0.5654867E+01    0.5969026E+01    0.6283185E+01    0.0000000E+00    0.3141593E+00    0.6283185E+00    0.9424778E+00    0.1256637E+01
  0.1570796E+01    0.1884956E+01    0.2199115E+01    0.2513274E+01    0.2827433E+01    0.3141593E+01    0.3455752E+01    0.3769911E+01    0.4084071E+01    0.4398230E+01
  0.4712389E+01    0.5026548E+01    0.5340708E+01    0.5654867E+01    0.5969026E+01    0.6283185E+01    0.0000000E+00    0.3141593E+00    0.6283185E+00    0.9424778E+00
  0.1256637E+01    0.1570796E+01    0.1884956E+01    0.2199115E+01    0.2513274E+01    0.2827433E+01    0.3141593E+01    0.3455752E+01    0.3769911E+01    0.4084071E+01
  0.4398230E+01    0.4712389E+01    0.5026548E+01    0.5340708E+01    0.5654867E+01    0.5969026E+01    0.6283185E+01    0.0000000E+00    0.3141593E+00    0.6283185E+00
  0.9424778E+00    0.1256637E+01    0.1570796E+01    0.1884956E+01    0.2199115E+01    0.2513274E+01    0.2827433E+01    0.3141593E+01    0.3455752E+01    0.3769911E+01
  0.4084071E+01    0.4398230E+01    0.4712389E+01    0.5026548E+01    0.5340708E+01    0.5654867E+01    0.5969026E+01    0.6283185E+01    0.0000000E+00    0.3141593E+00
  0.6283185E+00    0.9424778E+00    0.1256637E+01    0.1570796E+01    0.1884956E+01    0.2199115E+01    0.2513274E+01    0.2827433E+01    0.3141593E+01    0.3455752E+01
  0.3769911E+01    0.4084071E+01    0.4398230E+01    0.4712389E+01    0.5026548E+01    0.5340708E+01    0.5654867E+01    0.5969026E+01    0.6283185E+01    0.0000000E+00
  0.3141593E+00    0.6283185E+00    0.9424778E+00    0.1256637E+01    0.1570796E+01    0.1884956E+01    0.2199115E+01    0.2513274E+01    0.2827433E+01    0.3141593E+01
  0.3455752E+01    0.3769911E+01    0.4084071E+01    0.4398230E+01    0.4712389E+01    0.5026548E+01    0.5340708E+01    0.5654867E+01    0.5969026E+01    0.6283185E+01
  0.0000000E+00    0.3141593E+00    0.6283185E+00    0.9424778E+00    0.1256637E+01    0.1570796E+01    0.1884956E+01    0.2199115E+01    0.2513274E+01    0.2827433E+01
  0.3141593E+01    0.3455752E+01    0.3769911E+01    0.4084071E+01    0.4398230E+01    0.4712389E+01    0.5026548E+01    0.5340708E+01    0.5654867E+01    0.5969026E+01
  0.6283185E+01    0.0000000E+00    0.3141593E+00    0.6283185E+00    0.9424778E+00    0.1256637E+01    0.1570796E+01    0.1884956E+01    0.2199115E+01    0.2513274E+01
  0.2827433E+01    0.3141593E+01    0.3455752E+01    0.3769911E+01    0.4084071E+01    0.4398230E+01    0.4712389E+01    0.5026548E+01    0.5340708E+01    0.5654867E+01
  0.5969026E+01    0.6283185E+01    0.0000000E+00    0.3141593E+00    0.6283185E+00    0.9424778E+00    0.1256637E+01    0.1570796E+01    0.1884956E+01    0.2199115E+01
  0.2513274E+01    0.2827433E+01    0.3141593E+01    0.3455752E+01    0.3769911E+01    0.4084071E+01    0.4398230E+01    0.4712389E+01    0.5026548E+01    0.5340708E+01
  0.5654867E+01    0.5969026E+01    0.6283185E+01    0.0000000E+00    0.3141593E+00    0.6283185E+00    0.9424778E+00    0.1256637E+01    0.1570796E+01    0.1884956E+01
  0.2199115E+01    0.2513274E+01    0.2827433E+01    0.3141593E+01    0.3455752E+01    0.3769911E+01    0.4084071E+01    0.4398230E+01    0.4712389E+01    0.5026548E+01
  0.5340708E+01    0.5654867E+01    0.5969026E+01    0.6283185E+01    0.0000000E+00    0.3141593E+00    0.6283185E+00    0.9424778E+00    0.1256637E+01    0.1570796E+01
  0.1884956E+01    0.2199115E+01    0.2513274E+01    0.2827433E+01    0.3141593E+01    0.3455752E+01    0.3769911E+01    0.4084071E+01    0.4398230E+01    0.4712389E+01
  0.5026548E+01    0.5340708E+01    0.5654867E+01    0.5969026E+01    0.6283185E+01    0.0000000E+00    0.3141593E+00    0.6283185E+00    0.9424778E+00    0.1256637E+01
  0.1570796E+01    0.1884956E+01    0.2199115E+01    0.2513274E+01    0.2827433E+01    0.3141593E+01    0.3455752E+01    0.3769911E+01    0.4084071E+01    0.4398230E+01
  0.4712389E+01    0.5026548E+01    0.5340708E+01    0.5654867E+01    0.5969026E+01    0.6283185E+01    0.0000000E+00    0.3141593E+00    0.6283185E+00    0.9424778E+00
  0.1256637E+01    0.1570796E+01    0.1884956E+01    0.2199115E+01    0.2513274E+01    0.2827433E+01    0.3141593E+01    0.3455752E+01    0.3769911E+01    0.4084071E+01
  0.4398230E+01    0.4712389E+01    0.5026548E+01    0.5340708E+01    0.5654867E+01    0.5969026E+01    0.6283185E+01    0.0000000E+00    0.3141593E+00    0.6283185E+00
  0.9424778E+00    0.1256637E+01    0.1570796E+01    0.1884956E+01    0.2199115E+01    0.2513274E+01    0.2827433E+01    0.3141593E+01    0.3455752E+01    0.3769911E+01
  0.4084071E+01    0.4398230E+01    0.4712389E+01    0.5026548E+01    0.5340708E+01    0.5654867E+01    0.5969026E+01    0.6283185E+01    0.0000000E+00    0.3141593E+00
  0.6283185E+00    0.9424778E+00    0.1256637E+01    0.1570796E+01    0.1884956E+01    0.2199115E+01    0.2513274E+01    0.2827433E+01    0.3141593E+01    0.3455752E+01
  0.3769911E+01    0.4084071E+01    0.4398230E+01    0.4712389E+01    0.5026548E+01    0.5340708E+01    0.5654867E+01    0.5969026E+01    0.6283185E+01    0.0000000E+00
  0.3141593E+00    0.6283185E+00    0.9424778E+00    0.1256637E+01    0.1570796E+01    0.1884956E+01    0.2199115E+01    0.2513274E+01    0.2827433E+01    0.3141593E+01
  0.3455752E+01    0.3769911E+01    0.4084071E+01    0.4398230E+01    0.4712389E+01    0.5026548E+01    0.5340708E+01    0.5654867E+01    0.5969026E+01    0.6283185E+01
  0.0000000E+00    0.3141593E+00    0.6283185E+00    0.9424778E+00    0.1256637E+01    0.1570796E+01    0.1884956E+01    0.2199115E+01    0.2513274E+01    0.2827433E+01
  0.3141593E+01    0.3455752E+01    0.3769911E+01    0.4084071E+01    0.4398230E+01    0.4712389E+01    0.5026548E+01    0.5340708E+01    0.5654867E+01    0.5969026E+01
  0.6283185E+01    0.0000000E+00    0.0000000E+00    0.0000000E+00    0.0000000E+00    0.0000000E+00    0.0000000E+00    0.0000000E+00    0.0000000E+00    0.0000000E+00
  0.0000000E+00    0.0000000E+00    0.0000000E+00    0.0000000E+00    0.0000000E+00    0.0000000E+00    0.0000000E+00    0.0000000E+00    0.0000000E+00    0.0000000E+00
  0.0000000E+00    0.0000000E+00    0.3141593E+00    0.3141593E+00    0.3141593E+00    0.3141593E+00    0.3141593E+00    0.3141593E+00    0.3141593E+00    0.3141593E+00
  0.3141593E+00    0.3141593E+00    0.3141593E+00    0.3141593E+00    0.3141593E+00    0.3141593E+00    0.3141593E+00    0.3141593E+00    0.3141593E+00    0.3141593E+00
  0.3141593E+00    0.3141593E+00    0.3141593E+00    0.6283185E+00    0.6283185E+00    0.6283185E+00    0.6283185E+00    0.6283185E+00    0.6283185E+00    0.6283185E+00
  0.6283185E+00    0.6283185E+00    0.6283185E+00    0.6283185E+00    0.6283185E+00    0.6283185E+00    0.6283185E+00    0.6283185E+00    0.6283185E+00    0.6283185E+00
  0.6283185E+00    0.6283185E+00    0.6283185E+00    0.6283185E+00    0.9424778E+00    0.9424778E+00    0.9424778E+00    0.9424778E+00    0.9424778E+00    0.9424778E+00
  0.9424778E+00    0.9424778E+00    0.9424778E+00    0.9424778E+00    0.9424778E+00    0.9424778E+00    0.9424778E+00    0.9424778E+00    0.9424778E+00    0.9424778E+00
  0.9424778E+00    0.9424778E+00    0.9424778E+00    0.9424778E+00    0.9424778E+00    0.1256637E+01    0.1256637E+01    0.1256637E+01    0.1256637E+01    0.1256637E+01
  0.1256637E+01    0.1256637E+01    0.1256637E+01    0.1256637E+01    0.1256637E+01    0.1256637E+01    0.1256637E+01    0.1256637E+01    0.1256637E+01    0.1256637E+01
  0.1256637E+01    0.1256637E+01    0.1256637E+01    0.1256637E+01    0.1256637E+01    0.1256637E+01    0.1570796E+01    0.1570796E+01    0.1570796E+01    0.1570796E+01
  0.1570796E+01    0.1570796E+01    0.1570796E+01    0.1570796E+01    0.1570796E+01    0.1570796E+01    0.1570796E+01    0.1570796E+01    0.1570796E+01    0.1570796E+01
  0.1570796E+01    0.1570796E+01    0.1570796E+01    0.1570796E+01    0.1570796E+01    0.1570796E+01    0.1570796E+01    0.1884956E+01    0.1884956E+01    0.1884956E+01
  0.1884956E+01    0.1884956E+01    0.1884956E+01    0.1884956E+01    0.1884956E+01    0.1884956E+01    0.1884956E+01    0.1884956E+01    0.1884956E+01    0.1884956E+01
  0.1884956E+01    0.1884956E+01    0.1884956E+01    0.1884956E+01    0.1884956E+01    0.1884956E+01    0.1884956E+01    0.1884956E+01    0.2199115E+01    0.2199115E+01
  0.2199115E+01    0.2199115E+01    0.2199115E+01    0.2199115E+01    0.2199115E+01    0.2199115E+01    0.2199115E+01    0.2199115E+01    0.2199115E+01    0.2199115E+01
  0.2199115E+01    0.2199115E+01    0.2199115E+01    0.2199115E+01    0.2199115E+01    0.2199115E+01    0.2199115E+01    0.2199115E+01    0.2199115E+01    0.2513274E+01
  0.2513274E+01    0.2513274E+01    0.2513274E+01    0.2513274E+01    0.2513274E+01    0.2513274E+01    0.2513274E+01    0.2513274E+01    0.2513274E+01    0.2513274E+01
  0.2513274E+01    0.2513274E+01    0.2513274E+01    0.2513274E+01    0.2513274E+01    0.2513274E+01    0.2513274E+01    0.2513274E+01    0.2513274E+01    0.2513274E+01
  0.2827433E+01    0.2827433E+01    0.2827433E+01    0.2827433E+01    0.2827433E+01    0.2827433E+01    0.2827433E+01    0.2827433E+01    0.2827433E+01    0.2827433E+01
  0.2827433E+01    0.2827433E+01    0.2827433E+01    0.2827433E+01    0.2827433E+01    0.2827433E+01    0.2827433E+01    0.2827433E+01    0.2827433E+01    0.2827433E+01
  0.2827433E+01    0.3141593E+01    0.3141593E+01    0.3141593E+01    0.3141593E+01    0.3141593E+01    0.3141593E+01    0.3141593E+01    0.3141593E+01    0.3141593E+01
  0.3141593E+01    0.3141593E+01    0.3141593E+01    0.3141593E+01    0.3141593E+01    0.3141593E+01    0.3141593E+01    0.3141593E+01    0.3141593E+01    0.3141593E+01
  0.3141593E+01    0.3141593E+01    0.3455752E+01    0.3455752E+01    0.3455752E+01    0.3455752E+01    0.3455752E+01    0.3455752E+01    0.3455752E+01    0.3455752E+01
  0.3455752E+01    0.3455752E+01    0.3455752E+01    0.3455752E+01    0.3455752E+01    0.3455752E+01    0.3455752E+01    0.3455752E+01    0.3455752E+01    0.3455752E+01
  0.3455752E+01    0.3455752E+01    0.3455752E+01    0.3769911E+01    0.3769911E+01    0.3769911E+01    0.3769911E+01    0.3769911E+01    0.3769911E+01    0.3769911E+01
  0.3769911E+01    0.3769911E+01    0.3769911E+01    0.3769911E+01    0.3769911E+01    0.3769911E+01    0.3769911E+01    0.3769911E+01    0.3769911E+01    0.3769911E+01
  0.3769911E+01    0.3769911E+01    0.3769911E+01    0.3769911E+01    0.4084071E+01    0.4084071E+01    0.4084071E+01    0.4084071E+01    0.4084071E+01    0.4084071E+01
  0.4084071E+01    0.4084071E+01    0.4084071E+01    0.4084071E+01    0.4084071E+01    0.4084071E+01    0.4084071E+01    0.4084071E+01    0.4084071E+01    0.4084071E+01
  0.4084071E+01    0.4084071E+01    0.4084071E+01    0.4084071E+01    0.4084071E+01    0.4398230E+01    0.4398230E+01    0.4398230E+01    0.4398230E+01    0.4398230E+01
  0.4398230E+01    0.4398230E+01    0.4398230E+01    0.4398230E+01    0.4398230E+01    0.4398230E+01    0.4398230E+01    0.4398230E+01    0.4398230E+01    0.4398230E+01
  0.4398230E+01    0.4398230E+01    0.4398230E+01    0.4398230E+01    0.4398230E+01    0.4398230E+01    0.4712389E+01    0.4712389E+01    0.4712389E+01    0.4712389E+01
  0.4712389E+01    0.4712389E+01    0.4712389E+01    0.4712389E+01    0.4712389E+01    0.4712389E+01    0.4712389E+01    0.4712389E+01    0.4712389E+01    0.4712389E+01
  0.4712389E+01    0.4712389E+01    0.4712389E+01    0.4712389E+01    0.4712389E+01    0.4712389E+01    0.4712389E+01    0.5026548E+01    0.5026548E+01    0.5026548E+01
  0.5026548E+01    0.5026548E+01    0.5026548E+01    0.5026548E+01    0.5026548E+01    0.5026548E+01    0.5026548E+01    0.5026548E+01    0.5026548E+01    0.5026548E+01
  0.5026548E+01    0.5026548E+01    0.5026548E+01    0.5026548E+01    0.5026548E+01    0.5026548E+01    0.5026548E+01    0.5026548E+01    0.5340708E+01    0.5340708E+01
  0.5340708E+01    0.5340708E+01    0.5340708E+01    0.5340708E+01    0.5340708E+01    0.5340708E+01    0.5340708E+01    0.5340708E+01    0.5340708E+01    0.5340708E+01
  0.5340708E+01    0.5340708E+01    0.5340708E+01    0.5340708E+01    0.5340708E+01    0.5340708E+01    0.5340708E+01    0.5340708E+01    0.5340708E+01    0.5654867E+01
  0.5654867E+01    0.5654867E+01    0.5654867E+01    0.5654867E+01    0.5654867E+01    0.5654867E+01    0.5654867E+01    0.5654867E+01    0.5654867E+01    0.5654867E+01
  0.5654867E+01    0.5654867E+01    0.5654867E+01    0.5654867E+01    0.5654867E+01    0.5654867E+01    0.5654867E+01    0.5654867E+01    0.5654867E+01    0.5654867E+01
  0.5969026E+01    0.5969026E+01    0.5969026E+01    0.5969026E+01    0.5969026E+01    0.5969026E+01    0.5969026E+01    0.5969026E+01    0.5969026E+01    0.5969026E+01
  0.5969026E+01    0.5969026E+01    0.5969026E+01    0.5969026E+01    0.5969026E+01    0.5969026E+01    0.5969026E+01    0.5969026E+01    0.5969026E+01    0.5969026E+01
  0.5969026E+01    0.6283185E+01    0.6283185E+01    0.6283185E+01    0.6283185E+01    0.6283185E+01    0.6283185E+01    0.6283185E+01    0.6283185E+01    0.6283185E+01
  0.6283185E+01    0.6283185E+01    0.6283185E+01    0.6283185E+01    0.6283185E+01    0.6283185E+01    0.6283185E+01    0.6283185E+01    0.6283185E+01    0.6283185E+01
  0.6283185E+01    0.6283185E+01   -0.1721688E-01   -0.1553185E-01   -0.1232654E-01   -0.7914401E-02   -0.2727266E-02    0.2726875E-02    0.7914340E-02    0.1232748E-01
  0.1553403E-01    0.1721819E-01    0.1721706E-01    0.1553218E-01    0.1232673E-01    0.7914769E-02    0.2727537E-02   -0.2726805E-02   -0.7913768E-02   -0.1232666E-01
 -0.1553294E-01   -0.1721798E-01   -0.4996525E-01   -0.4507372E-01   -0.3577005E-01   -0.2296469E-01   -0.7911041E-02    0.7917285E-02    0.2297095E-01    0.3577620E-01
  0.4507882E-01    0.4996735E-01    0.4996475E-01    0.4507255E-01    0.3576906E-01    0.2296446E-01    0.7911529E-02   -0.7915958E-02   -0.2296853E-01   -0.3577327E-01
 -0.4507628E-01   -0.4996667E-01   -0.7782261E-01   -0.7020348E-01   -0.5571228E-01   -0.3576731E-01   -0.1232079E-01    0.1233211E-01    0.3577810E-01    0.5572180E-01
  0.7021029E-01    0.7782505E-01    0.7782175E-01    0.7020165E-01    0.5571058E-01    0.3576656E-01    0.1232123E-01   -0.1233033E-01   -0.3577497E-01   -0.5571817E-01
 -0.7020735E-01   -0.7782397E-01   -0.9806163E-01   -0.8846112E-01   -0.7020117E-01   -0.4506907E-01   -0.1552492E-01    0.1553918E-01    0.4508232E-01    0.7021229E-01
  0.8846867E-01    0.9806447E-01    0.9806101E-01    0.8845919E-01    0.7019913E-01    0.4506792E-01    0.1552501E-01   -0.1553763E-01   -0.4507947E-01   -0.7020909E-01
 -0.8846619E-01   -0.9806353E-01   -0.1087021E+00   -0.9805982E-01   -0.7781850E-01   -0.4995944E-01   -0.1720972E-01    0.1722479E-01    0.4997323E-01    0.7782966E-01
  0.9806704E-01    0.1087045E+00    0.1087011E+00    0.9805765E-01    0.7781616E-01    0.4995781E-01    0.1720923E-01   -0.1722393E-01   -0.4997130E-01   -0.7782755E-01
 -0.9806568E-01   -0.1087047E+00   -0.1087024E+00   -0.9805990E-01   -0.7781853E-01   -0.4995958E-01   -0.1721004E-01    0.1722420E-01    0.4997234E-01    0.7782858E-01
  0.9806596E-01    0.1087036E+00    0.1087006E+00    0.9805729E-01    0.7781579E-01    0.4995743E-01    0.1720887E-01   -0.1722430E-01   -0.4997158E-01   -0.7782769E-01
 -0.9806577E-01   -0.1087046E+00   -0.9806159E-01   -0.8846096E-01   -0.7020108E-01   -0.4506927E-01   -0.1552566E-01    0.1553767E-01    0.4507996E-01    0.7020927E-01
  0.8846559E-01    0.9806205E-01    0.9805944E-01    0.8845806E-01    0.7019801E-01    0.4506667E-01    0.1552377E-01   -0.1553874E-01   -0.4508036E-01   -0.7020965E-01
 -0.8846646E-01   -0.9806361E-01   -0.7782201E-01   -0.7020292E-01   -0.5571180E-01   -0.3576715E-01   -0.1232137E-01    0.1233044E-01    0.3577513E-01    0.5571762E-01
  0.7020576E-01    0.7782148E-01    0.7781935E-01    0.7019966E-01    0.5570845E-01    0.3576412E-01    0.1231885E-01   -0.1233235E-01   -0.3577663E-01   -0.5571920E-01
 -0.7020779E-01   -0.7782424E-01   -0.4996498E-01   -0.4507294E-01   -0.3576894E-01   -0.2296371E-01   -0.7910693E-02    0.7916537E-02    0.2296865E-01    0.3577223E-01
  0.4507389E-01    0.4996318E-01    0.4996163E-01    0.4506937E-01    0.3576537E-01    0.2296041E-01    0.7907778E-02   -0.7919119E-02   -0.2297100E-01   -0.3577463E-01
 -0.4507672E-01   -0.4996658E-01   -0.1721652E-01   -0.1553059E-01   -0.1232456E-01   -0.7912185E-02   -0.2725407E-02    0.2727952E-02    0.7914141E-02    0.1232545E-01
  0.1552997E-01    0.1721416E-01    0.1721321E-01    0.1552710E-01    0.1232105E-01    0.7908883E-02    0.2722262E-02   -0.2730954E-02   -0.7916993E-02   -0.1232844E-01
 -0.1553320E-01   -0.1721748E-01    0.1721726E-01    0.1553196E-01    0.1232628E-01    0.7913941E-02    0.2726777E-02   -0.2727465E-02   -0.7914875E-02   -0.1232773E-01
 -0.1553405E-01   -0.1721990E-01   -0.1722033E-01   -0.1553525E-01   -0.1232956E-01   -0.7917162E-02   -0.2729971E-02    0.2724314E-02    0.7911645E-02    0.1232428E-01
  0.1553040E-01    0.1721602E-01    0.4996500E-01    0.4507393E-01    0.3577050E-01    0.2296539E-01    0.7912110E-02   -0.7915853E-02   -0.2296914E-01   -0.3577415E-01
 -0.4507748E-01   -0.4996848E-01   -0.4996830E-01   -0.4507702E-01   -0.3577352E-01   -0.2296837E-01   -0.7915121E-02    0.7912641E-02    0.2296574E-01    0.3577059E-01
  0.4507365E-01    0.4996441E-01    0.7782245E-01    0.7020400E-01    0.5571327E-01    0.3576880E-01    0.1232287E-01   -0.1232952E-01   -0.3577510E-01   -0.5571884E-01
 -0.7020859E-01   -0.7782587E-01   -0.7782508E-01   -0.7020650E-01   -0.5571575E-01   -0.3577131E-01   -0.1232567E-01    0.1232637E-01    0.3577174E-01    0.5571523E-01
  0.7020496E-01    0.7782266E-01    0.9806209E-01    0.8846179E-01    0.7020225E-01    0.4507071E-01    0.1552714E-01   -0.1553649E-01   -0.4507938E-01   -0.7020967E-01
 -0.8846735E-01   -0.9806523E-01   -0.9806397E-01   -0.8846367E-01   -0.7020411E-01   -0.4507281E-01   -0.1552967E-01    0.1553352E-01    0.4507593E-01    0.7020590E-01
  0.8846362E-01    0.9806162E-01    0.1087016E+00    0.9805992E-01    0.7781911E-01    0.4996053E-01    0.1721126E-01   -0.1722294E-01   -0.4997135E-01   -0.7782815E-01
 -0.9806654E-01   -0.1087055E+00   -0.1087037E+00   -0.9806135E-01   -0.7782045E-01   -0.4996214E-01   -0.1721340E-01    0.1722003E-01    0.4996785E-01    0.7782445E-01
  0.9806279E-01    0.1087020E+00    0.1087017E+00    0.9805961E-01    0.7781848E-01    0.4995973E-01    0.1721038E-01   -0.1722383E-01   -0.4997206E-01   -0.7782858E-01
 -0.9806664E-01   -0.1087051E+00   -0.1087027E+00   -0.9806016E-01   -0.7781903E-01   -0.4996068E-01   -0.1721223E-01    0.1722103E-01    0.4996865E-01    0.7782482E-01
  0.9806317E-01    0.1087027E+00    0.9806121E-01    0.8846028E-01    0.7020024E-01    0.4506835E-01    0.1552460E-01   -0.1553895E-01   -0.4508144E-01   -0.7021096E-01
 -0.8846748E-01   -0.9806396E-01   -0.9806137E-01   -0.8846008E-01   -0.7020007E-01   -0.4506885E-01   -0.1552614E-01    0.1553635E-01    0.4507788E-01    0.7020700E-01
  0.8846384E-01    0.9806085E-01    0.7782047E-01    0.7020154E-01    0.5571030E-01    0.3576534E-01    0.1231917E-01   -0.1233303E-01   -0.3577806E-01   -0.5572068E-01
 -0.7020864E-01   -0.7782388E-01   -0.7782107E-01   -0.7020089E-01   -0.5570963E-01   -0.3576539E-01   -0.1232028E-01    0.1233055E-01    0.3577460E-01    0.5571701E-01
  0.7020514E-01    0.7782112E-01    0.4996420E-01    0.4507189E-01    0.3576745E-01    0.2296166E-01    0.7908116E-02   -0.7919637E-02   -0.2297220E-01   -0.3577590E-01
 -0.4507727E-01   -0.4996579E-01   -0.4996318E-01   -0.4507026E-01   -0.3576613E-01   -0.2296122E-01   -0.7908900E-02    0.7917586E-02    0.2296931E-01    0.3577273E-01
  0.4507462E-01    0.4996481E-01    0.1721680E-01    0.1553018E-01    0.1232357E-01    0.7910598E-02    0.2723342E-02   -0.2730421E-02   -0.7916990E-02   -0.1232846E-01
 -0.1553275E-01   -0.1721658E-01   -0.1721511E-01   -0.1552834E-01   -0.1232214E-01   -0.7910223E-02   -0.2723663E-02    0.2729297E-02    0.7914979E-02    0.1232649E-01
  0.1553101E-01    0.1721480E-01    0.1721893E-01    0.4996577E-01    0.7782075E-01    0.9805721E-01    0.1086930E+00    0.1086865E+00    0.9803849E-01    0.7778997E-01
  0.4992273E-01    0.1716552E-01   -0.1726100E-01   -0.5000153E-01   -0.7785009E-01   -0.9808165E-01   -0.1087163E+00   -0.1087102E+00   -0.9806522E-01   -0.7782392E-01
 -0.4996379E-01   -0.1721407E-01    0.1553347E-01    0.4507473E-01    0.7020280E-01    0.8845771E-01    0.9805176E-01    0.9804529E-01    0.8843864E-01    0.7017147E-01
  0.4503203E-01    0.1548361E-01   -0.1557527E-01   -0.4511036E-01   -0.7023226E-01   -0.8848277E-01   -0.9807521E-01   -0.9806941E-01   -0.8846630E-01   -0.7020550E-01
 -0.4507285E-01   -0.1552930E-01    0.1232682E-01    0.3577068E-01    0.5571191E-01    0.7019822E-01    0.7781105E-01    0.7780473E-01    0.7017952E-01    0.5568163E-01
  0.3573071E-01    0.1228167E-01   -0.1236737E-01   -0.3580610E-01   -0.5574197E-01   -0.7022434E-01   -0.7783553E-01   -0.7783005E-01   -0.7020829E-01   -0.5571577E-01
 -0.3577040E-01   -0.1232455E-01    0.7913252E-02    0.2296464E-01    0.3576679E-01    0.4506627E-01    0.4995237E-01    0.4994639E-01    0.4504872E-01    0.3573882E-01
  0.2292856E-01    0.7873278E-02   -0.7952106E-02   -0.2299958E-01   -0.3579738E-01   -0.4509354E-01   -0.4997827E-01   -0.4997315E-01   -0.4507848E-01   -0.3577298E-01
 -0.2296694E-01   -0.7913770E-02    0.2724893E-02    0.7910245E-02    0.1231993E-01    0.1552203E-01    0.1720277E-01    0.1719737E-01    0.1550621E-01    0.1229498E-01
  0.7878572E-02    0.2690103E-02   -0.2762009E-02   -0.7944495E-02   -0.1235084E-01   -0.1555039E-01   -0.1723009E-01   -0.1722546E-01   -0.1553681E-01   -0.1232899E-01
 -0.7915620E-02   -0.2728573E-02   -0.2730722E-02   -0.7919000E-02   -0.1233358E-01   -0.1554253E-01   -0.1723196E-01   -0.1723670E-01   -0.1555634E-01   -0.1235516E-01
 -0.7946120E-02   -0.2760342E-02    0.2694876E-02    0.7885302E-02    0.1230233E-01    0.1551319E-01    0.1720337E-01    0.1720739E-01    0.1552507E-01    0.1232139E-01
  0.7910185E-02    0.2723561E-02   -0.7919342E-02   -0.2297348E-01   -0.3578037E-01   -0.4508651E-01   -0.4998110E-01   -0.4998518E-01   -0.4509830E-01   -0.3579868E-01
 -0.2299638E-01   -0.7944218E-02    0.7884522E-02    0.2294024E-01    0.3574892E-01    0.4505643E-01    0.4995147E-01    0.4995494E-01    0.4506660E-01    0.3576511E-01
  0.2296130E-01    0.7908658E-02   -0.1233295E-01   -0.3577952E-01   -0.5572530E-01   -0.7021796E-01   -0.7783899E-01   -0.7784243E-01   -0.7022793E-01   -0.5574077E-01
 -0.3579880E-01   -0.1235389E-01    0.1229902E-01    0.3574672E-01    0.5569378E-01    0.7018733E-01    0.7780862E-01    0.7781159E-01    0.7019595E-01    0.5570744E-01
  0.3576447E-01    0.1231921E-01   -0.1553988E-01   -0.4508381E-01   -0.7021620E-01   -0.8847701E-01   -0.9807880E-01   -0.9808172E-01   -0.8848549E-01   -0.7022933E-01
 -0.4510012E-01   -0.1555763E-01    0.1550643E-01    0.4505121E-01    0.7018447E-01    0.8844592E-01    0.9804789E-01    0.9805039E-01    0.8845332E-01    0.7019624E-01
  0.4506632E-01    0.1552367E-01   -0.1722613E-01   -0.4997550E-01   -0.7783455E-01   -0.9807627E-01   -0.1087193E+00   -0.1087219E+00   -0.9808366E-01   -0.7784596E-01
 -0.4998972E-01   -0.1724155E-01    0.1719295E-01    0.4994298E-01    0.7780272E-01    0.9804494E-01    0.1086880E+00    0.1086903E+00    0.9805150E-01    0.7781305E-01
  0.4995627E-01    0.1720806E-01   -0.1722644E-01   -0.4997573E-01   -0.7783461E-01   -0.9807613E-01   -0.1087190E+00   -0.1087213E+00   -0.9808289E-01   -0.7784511E-01
 -0.4998881E-01   -0.1724070E-01    0.1719356E-01    0.4994334E-01    0.7780281E-01    0.9804469E-01    0.1086876E+00    0.1086898E+00    0.9805081E-01    0.7781240E-01
  0.4995569E-01    0.1720739E-01   -0.1554119E-01   -0.4508473E-01   -0.7021660E-01   -0.8847681E-01   -0.9807794E-01   -0.9808019E-01   -0.8848339E-01   -0.7022682E-01
 -0.4509749E-01   -0.1555523E-01    0.1550826E-01    0.4505226E-01    0.7018463E-01    0.8844526E-01    0.9804661E-01    0.9804867E-01    0.8845141E-01    0.7019434E-01
  0.4506453E-01    0.1552211E-01   -0.1233525E-01   -0.3578112E-01   -0.5572607E-01   -0.7021777E-01   -0.7783772E-01   -0.7784011E-01   -0.7022464E-01   -0.5573673E-01
 -0.3579454E-01   -0.1234996E-01    0.1230213E-01    0.3574849E-01    0.5569408E-01    0.7018638E-01    0.7780656E-01    0.7780883E-01    0.7019297E-01    0.5570437E-01
  0.3576158E-01    0.1231681E-01   -0.7922024E-02   -0.2297545E-01   -0.3578137E-01   -0.4508630E-01   -0.4997957E-01   -0.4998219E-01   -0.4509394E-01   -0.3579332E-01
 -0.2299052E-01   -0.7938665E-02    0.7888853E-02    0.2294283E-01    0.3574957E-01    0.4505519E-01    0.4994885E-01    0.4995146E-01    0.4506260E-01    0.3576111E-01
  0.2295757E-01    0.7905164E-02   -0.2734090E-02   -0.7921575E-02   -0.1233505E-01   -0.1554265E-01   -0.1723051E-01   -0.1723351E-01   -0.1555145E-01   -0.1234883E-01
 -0.7938973E-02   -0.2753447E-02    0.2700392E-02    0.7888657E-02    0.1230320E-01    0.1551185E-01    0.1720038E-01    0.1720326E-01    0.1552046E-01    0.1231680E-01
  0.7905794E-02    0.2719640E-02    0.2720968E-02    0.7907247E-02    0.1231806E-01    0.1552156E-01    0.1720396E-01    0.1720040E-01    0.1551124E-01    0.1230190E-01
  0.7886705E-02    0.2698263E-02   -0.2755372E-02   -0.7940530E-02   -0.1234974E-01   -0.1555170E-01   -0.1723333E-01   -0.1722987E-01   -0.1554164E-01   -0.1233395E-01
 -0.7920341E-02   -0.2732706E-02    0.7909732E-02    0.2296176E-01    0.3576487E-01    0.4506560E-01    0.4995318E-01    0.4994904E-01    0.4505350E-01    0.3574577E-01
  0.2293743E-01    0.7882675E-02   -0.7944659E-02   -0.2299518E-01   -0.3579606E-01   -0.4509491E-01   -0.4998141E-01   -0.4997733E-01   -0.4508330E-01   -0.3577777E-01
 -0.2297145E-01   -0.7918146E-02    0.1232331E-01    0.3576778E-01    0.5570990E-01    0.7019722E-01    0.7781127E-01    0.7780656E-01    0.7018333E-01    0.5568791E-01
  0.3573972E-01    0.1229196E-01   -0.1235952E-01   -0.3580173E-01   -0.5574088E-01   -0.7022570E-01   -0.7783829E-01   -0.7783383E-01   -0.7021257E-01   -0.5571983E-01
 -0.3577441E-01   -0.1232841E-01    0.1553016E-01    0.4507222E-01    0.7020114E-01    0.8845673E-01    0.9805153E-01    0.9804625E-01    0.8844120E-01    0.7017644E-01
  0.4504049E-01    0.1549489E-01   -0.1556769E-01   -0.4510669E-01   -0.7023146E-01   -0.8848406E-01   -0.9807743E-01   -0.9807221E-01   -0.8846970E-01   -0.7020862E-01
 -0.4507591E-01   -0.1553273E-01    0.1721713E-01    0.4996446E-01    0.7782017E-01    0.9805675E-01    0.1086925E+00    0.1086869E+00    0.9803989E-01    0.7779307E-01
  0.4992959E-01    0.1717835E-01   -0.1725519E-01   -0.4999897E-01   -0.7784929E-01   -0.9808304E-01   -0.1087175E+00   -0.1087113E+00   -0.9806800E-01   -0.7782551E-01
 -0.4996508E-01   -0.1721753E-01    0.3990059E-03    0.9044411E-03    0.1707101E-02    0.2539351E-02    0.3064884E-02    0.3008573E-02    0.2458525E-02    0.1603283E-02
  0.6632666E-03    0.4263084E-04    0.1762059E-03    0.6480173E-03    0.1529972E-02    0.2469107E-02    0.2907965E-02    0.2944363E-02    0.2521606E-02    0.1554058E-02
  0.7550652E-03    0.3916220E-03    0.9064163E-03    0.1420260E-02    0.2237876E-02    0.3076510E-02    0.3593574E-02    0.3547130E-02    0.2999748E-02    0.2135398E-02
  0.1213995E-02    0.6584498E-03    0.7243375E-03    0.1207828E-02    0.2074720E-02    0.2995472E-02    0.3466343E-02    0.3484106E-02    0.3033190E-02    0.2109920E-02
  0.1281670E-02    0.8643364E-03    0.1695355E-02    0.2226892E-02    0.3066195E-02    0.3899829E-02    0.4422959E-02    0.4396988E-02    0.3837823E-02    0.2981512E-02
  0.2087811E-02    0.1532636E-02    0.1580159E-02    0.2085906E-02    0.2928085E-02    0.3841704E-02    0.4344805E-02    0.4328171E-02    0.3871300E-02    0.2986683E-02
  0.2098895E-02    0.1655030E-02    0.2533892E-02    0.3066170E-02    0.3897940E-02    0.4738261E-02    0.5277539E-02    0.5240360E-02    0.4687295E-02    0.3853085E-02
  0.2945105E-02    0.2395033E-02    0.2453990E-02    0.2943282E-02    0.3786155E-02    0.4709949E-02    0.5190415E-02    0.5178938E-02    0.4736063E-02    0.3817848E-02