 TITLE = "NAVIER-STOKES OUTPUT"
 VARIABLES = "X", "Y", "U", "V", "P", "Pex", "Vor"
 ZONE I =   21, J =   21, DATAPACKING = BLOCK, VARLOCATION=(3=CELLCENTERED, 4=CELLCENTERED,5=CELLCENTERED,6=CELLCENTERED, 7=CELLCENTERED)
  0.0000000E+00    0.3141593E+00    0.6283185E+00    0.9424778E+00    0.1256637E+01    0.1570796E+01    0.1884956E+01    0.2199115E+01    0.2513274E+01    0.2827433E+01
  0.3141593E+01    0.3455752E+01    0.3769911E+01    0.4084071E+01    0.4398230E+01    0.4712389E+01    0.5026548E+01    0.5340708E+01    0.5654867E+01    0.5969026E+01
  0.6283185E+01    0.0000000E+00    0.3141593E+00    0.6283185E+00    0.9424778E+00    0.1256637E+01    0.1570796E+01    0.1884956E+01    0.2199115E+01    0.2513274E+01
  0.2827433E+01    0.3141593E+01    0.3455752E+01    0.3769911E+01    0.4084071E+01    0.4398230E+01    0.4712389E+01    0.5026548E+01    0.5340708E+01    0.5654867E+01
  0.5969026E+01    0.6283185E+01    0.0000000E+00    0.3141593E+00    0.6283185E+00    0.9424778E+00    0.1256637E+01    0.1570796E+01    0.1884956E+01    0.2199115E+01
  0.2513274E+01    0.2827433E+01    0.3141593E+01    0.3455752E+01    0.3769911E+01    0.4084071E+01    0.4398230E+01    0.4712389E+01    0.5026548E+01    0.5340708E+01
  0.5654867E+01    0.5969026E+01    0.6283185E+01    0.0000000E+00    0.3141593E+00    0.6283185E+00    0.9424778E+00    0.1256637E+01    0.1570796E+01    0.1884956E+01
  0.2199115E+01    0.2513274E+01    0.2827433E+01    0.3141593E+01    0.3455752E+01    0.3769911E+01    0.4084071E+01    0.4398230E+01    0.4712389E+01    0.5026548E+01
  0.5340708E+01    0.5654867E+01    0.5969026E+01    0.6283185E+01    0.0000000E+00    0.3141593E+00    0.6283185E+00    0.9424778E+00    0.1256637E+01    0.1570796E+01
  0.1884956E+01    0.2199115E+01    0.2513274E+01    0.2827433E+01    0.3141593E+01    0.3455752E+01    0.3769911E+01    0.4084071E+01    0.4398230E+01    0.4712389E+01
  0.5026548E+01    0.5340708E+01    0.5654867E+01    0.5969026E+01    0.6283185E+01    0.0000000E+00    0.3141593E+00    0.6283185E+00    0.9424778E+00    0.1256637E+01
  0.1570796E+01    0.1884956E+01    0.2199115E+01    0.2513274E+01    0.2827433E+01    0.3141593E+01    0.3455752E+01    0.3769911E+01    0.4084071E+01    0.4398230E+01
  0.4712389E+01    0.5026548E+01    0.5340708E+01    0.5654867E+01    0.5969026E+01    0.6283185E+01    0.0000000E+00    0.3141593E+00    0.6283185E+00    0.9424778E+00
  0.1256637E+01    0.1570796E+01    0.1884956E+01    0.2199115E+01    0.2513274E+01    0.2827433E+01    0.3141593E+01    0.3455752E+01    0.3769911E+01    0.4084071E+01
  0.4398230E+01    0.4712389E+01    0.5026548E+01    0.5340708E+01    0.5654867E+01    0.5969026E+01    0.6283185E+01    0.0000000E+00    0.3141593E+00    0.6283185E+00
  0.9424778E+00    0.1256637E+01    0.1570796E+01    0.1884956E+01    0.2199115E+01    0.2513274E+01    0.2827433E+01    0.3141593E+01    0.3455752E+01    0.3769911E+01
  0.4084071E+01    0.4398230E+01    0.4712389E+01    0.5026548E+01    0.5340708E+01    0.5654867E+01    0.5969026E+01    0.6283185E+01    0.0000000E+00    0.3141593E+00
  0.6283185E+00    0.9424778E+00    0.1256637E+01    0.1570796E+01    0.1884956E+01    0.2199115E+01    0.2513274E+01    0.2827433E+01    0.3141593E+01    0.3455752E+01
  0.3769911E+01    0.4084071E+01    0.4398230E+01    0.4712389E+01    0.5026548E+01    0.5340708E+01    0.5654867E+01    0.5969026E+01    0.6283185E+01    0.0000000E+00
  0.3141593E+00    0.6283185E+00    0.9424778E+00    0.1256637E+01    0.1570796E+01    0.1884956E+01    0.2199115E+01    0.2513274E+01    0.2827433E+01    0.3141593E+01
  0.3455752E+01    0.3769911E+01    0.4084071E+01    0.4398230E+01    0.4712389E+01    0.5026548E+01    0.5340708E+01    0.5654867E+01    0.5969026E+01    0.6283185E+01
  0.0000000E+00    0.3141593E+00    0.6283185E+00    0.9424778E+00    0.1256637E+01    0.1570796E+01    0.1884956E+01    0.2199115E+01    0.2513274E+01    0.2827433E+01
  0.3141593E+01    0.3455752E+01    0.3769911E+01    0.4084071E+01    0.4398230E+01    0.4712389E+01    0.5026548E+01    0.5340708E+01    0.5654867E+01    0.5969026E+01
  0.6283185E+01    0.0000000E+00    0.3141593E+00    0.6283185E+00    0.9424778E+00    0.1256637E+01    0.1570796E+01    0.1884956E+01    0.2199115E+01    0.2513274E+01
  0.2827433E+01    0.3141593E+01    0.3455752E+01    0.3769911E+01    0.4084071E+01    0.4398230E+01    0.4712389E+01    0.5026548E+01    0.5340708E+01    0.5654867E+01
  0.5969026E+01    0.6283185E+01    0.0000000E+00    0.3141593E+00    0.6283185E+00    0.9424778E+00    0.1256637E+01    0.1570796E+01    0.1884956E+01    0.2199115E+01
  0.2513274E+01    0.2827433E+01    0.3141593E+01    0.3455752E+01    0.3769911E+01    0.4084071E+01    0.4398230E+01    0.4712389E+01    0.5026548E+01    0.5340708E+01
  0.5654867E+01    0.5969026E+01    0.6283185E+01    0.0000000E+00    0.3141593E+00    0.6283185E+00    0.9424778E+00    0.1256637E+01    0.1570796E+01    0.1884956E+01
  0.2199115E+01    0.2513274E+01    0.2827433E+01    0.3141593E+01    0.3455752E+01    0.3769911E+01    0.4084071E+01    0.4398230E+01    0.4712389E+01    0.5026548E+01
  0.5340708E+01    0.5654867E+01    0.5969026E+01    0.6283185E+01    0.0000000E+00    0.3141593E+00    0.6283185E+00    0.9424778E+00    0.1256637E+01    0.1570796E+01
  0.1884956E+01    0.2199115E+01    0.2513274E+01    0.2827433E+01    0.3141593E+01    0.3455752E+01    0.3769911E+01    0.4084071E+01    0.4398230E+01    0.4712389E+01
  0.5026548E+01    0.5340708E+01    0.5654867E+01    0.5969026E+01    0.6283185E+01    0.0000000E+00    0.3141593E+00    0.6283185E+00    0.9424778E+00    0.1256637E+01
  0.1570796E+01    0.1884956E+01    0.2199115E+01    0.2513274E+01    0.2827433E+01    0.3141593E+01    0.3455752E+01    0.3769911E+01    0.4084071E+01    0.4398230E+01
  0.4712389E+01    0.5026548E+01    0.5340708E+01    0.5654867E+01    0.5969026E+01    0.6283185E+01    0.0000000E+00    0.3141593E+00    0.6283185E+00    0.9424778E+00
  0.1256637E+01    0.1570796E+01    0.1884956E+01    0.2199115E+01    0.2513274E+01    0.2827433E+01    0.3141593E+01    0.3455752E+01    0.3769911E+01    0.4084071E+01
  0.4398230E+01    0.4712389E+01    0.5026548E+01    0.5340708E+01    0.5654867E+01    0.5969026E+01    0.6283185E+01    0.0000000E+00    0.3141593E+00    0.6283185E+00
  0.9424778E+00    0.1256637E+01    0.1570796E+01    0.1884956E+01    0.2199115E+01    0.2513274E+01    0.2827433E+01    0.3141593E+01    0.3455752E+01    0.3769911E+01
  0.4084071E+01    0.4398230E+01    0.4712389E+01    0.5026548E+01    0.5340708E+01    0.5654867E+01    0.5969026E+01    0.6283185E+01    0.0000000E+00    0.3141593E+00
  0.6283185E+00    0.9424778E+00    0.1256637E+01    0.1570796E+01    0.1884956E+01    0.2199115E+01    0.2513274E+01    0.2827433E+01    0.3141593E+01    0.3455752E+01
  0.3769911E+01    0.4084071E+01    0.4398230E+01    0.4712389E+01    0.5026548E+01    0.5340708E+01    0.5654867E+01    0.5969026E+01    0.6283185E+01    0.0000000E+00
  0.3141593E+00    0.6283185E+00    0.9424778E+00    0.1256637E+01    0.1570796E+01    0.1884956E+01    0.2199115E+01    0.2513274E+01    0.2827433E+01    0.3141593E+01
  0.3455752E+01    0.3769911E+01    0.4084071E+01    0.4398230E+01    0.4712389E+01    0.5026548E+01    0.5340708E+01    0.5654867E+01    0.5969026E+01    0.6283185E+01
  0.0000000E+00    0.3141593E+00    0.6283185E+00    0.9424778E+00    0.1256637E+01    0.1570796E+01    0.1884956E+01    0.2199115E+01    0.2513274E+01    0.2827433E+01
  0.3141593E+01    0.3455752E+01    0.3769911E+01    0.4084071E+01    0.4398230E+01    0.4712389E+01    0.5026548E+01    0.5340708E+01    0.5654867E+01    0.5969026E+01
  0.6283185E+01    0.0000000E+00    0.0000000E+00    0.0000000E+00    0.0000000E+00    0.0000000E+00    0.0000000E+00    0.0000000E+00    0.0000000E+00    0.0000000E+00
  0.0000000E+00    0.0000000E+00    0.0000000E+00    0.0000000E+00    0.0000000E+00    0.0000000E+00    0.0000000E+00    0.0000000E+00    0.0000000E+00    0.0000000E+00
  0.0000000E+00    0.0000000E+00    0.3141593E+00    0.3141593E+00    0.3141593E+00    0.3141593E+00    0.3141593E+00    0.3141593E+00    0.3141593E+00    0.3141593E+00
  0.3141593E+00    0.3141593E+00    0.3141593E+00    0.3141593E+00    0.3141593E+00    0.3141593E+00    0.3141593E+00    0.3141593E+00    0.3141593E+00    0.3141593E+00
  0.3141593E+00    0.3141593E+00    0.3141593E+00    0.6283185E+00    0.6283185E+00    0.6283185E+00    0.6283185E+00    0.6283185E+00    0.6283185E+00    0.6283185E+00
  0.6283185E+00    0.6283185E+00    0.6283185E+00    0.6283185E+00    0.6283185E+00    0.6283185E+00    0.6283185E+00    0.6283185E+00    0.6283185E+00    0.6283185E+00
  0.6283185E+00    0.6283185E+00    0.6283185E+00    0.6283185E+00    0.9424778E+00    0.9424778E+00    0.9424778E+00    0.9424778E+00    0.9424778E+00    0.9424778E+00
  0.9424778E+00    0.9424778E+00    0.9424778E+00    0.9424778E+00    0.9424778E+00    0.9424778E+00    0.9424778E+00    0.9424778E+00    0.9424778E+00    0.9424778E+00
  0.9424778E+00    0.9424778E+00    0.9424778E+00    0.9424778E+00    0.9424778E+00    0.1256637E+01    0.1256637E+01    0.1256637E+01    0.1256637E+01    0.1256637E+01
  0.1256637E+01    0.1256637E+01    0.1256637E+01    0.1256637E+01    0.1256637E+01    0.1256637E+01    0.1256637E+01    0.1256637E+01    0.1256637E+01    0.1256637E+01
  0.1256637E+01    0.1256637E+01    0.1256637E+01    0.1256637E+01    0.1256637E+01    0.1256637E+01    0.1570796E+01    0.1570796E+01    0.1570796E+01    0.1570796E+01
  0.1570796E+01    0.1570796E+01    0.1570796E+01    0.1570796E+01    0.1570796E+01    0.1570796E+01    0.1570796E+01    0.1570796E+01    0.1570796E+01    0.1570796E+01
  0.1570796E+01    0.1570796E+01    0.1570796E+01    0.1570796E+01    0.1570796E+01    0.1570796E+01    0.1570796E+01    0.1884956E+01    0.1884956E+01    0.1884956E+01
  0.1884956E+01    0.1884956E+01    0.1884956E+01    0.1884956E+01    0.1884956E+01    0.1884956E+01    0.1884956E+01    0.1884956E+01    0.1884956E+01    0.1884956E+01
  0.1884956E+01    0.1884956E+01    0.1884956E+01    0.1884956E+01    0.1884956E+01    0.1884956E+01    0.1884956E+01    0.1884956E+01    0.2199115E+01    0.2199115E+01
  0.2199115E+01    0.2199115E+01    0.2199115E+01    0.2199115E+01    0.2199115E+01    0.2199115E+01    0.2199115E+01    0.2199115E+01    0.2199115E+01    0.2199115E+01
  0.2199115E+01    0.2199115E+01    0.2199115E+01    0.2199115E+01    0.2199115E+01    0.2199115E+01    0.2199115E+01    0.2199115E+01    0.2199115E+01    0.2513274E+01
  0.2513274E+01    0.2513274E+01    0.2513274E+01    0.2513274E+01    0.2513274E+01    0.2513274E+01    0.2513274E+01    0.2513274E+01    0.2513274E+01    0.2513274E+01
  0.2513274E+01    0.2513274E+01    0.2513274E+01    0.2513274E+01    0.2513274E+01    0.2513274E+01    0.2513274E+01    0.2513274E+01    0.2513274E+01    0.2513274E+01
  0.2827433E+01    0.2827433E+01    0.2827433E+01    0.2827433E+01    0.2827433E+01    0.2827433E+01    0.2827433E+01    0.2827433E+01    0.2827433E+01    0.2827433E+01
  0.2827433E+01    0.2827433E+01    0.2827433E+01    0.2827433E+01    0.2827433E+01    0.2827433E+01    0.2827433E+01    0.2827433E+01    0.2827433E+01    0.2827433E+01
  0.2827433E+01    0.3141593E+01    0.3141593E+01    0.3141593E+01    0.3141593E+01    0.3141593E+01    0.3141593E+01    0.3141593E+01    0.3141593E+01    0.3141593E+01
  0.3141593E+01    0.3141593E+01    0.3141593E+01    0.3141593E+01    0.3141593E+01    0.3141593E+01    0.3141593E+01    0.3141593E+01    0.3141593E+01    0.3141593E+01
  0.3141593E+01    0.3141593E+01    0.3455752E+01    0.3455752E+01    0.3455752E+01    0.3455752E+01    0.3455752E+01    0.3455752E+01    0.3455752E+01    0.3455752E+01
  0.3455752E+01    0.3455752E+01    0.3455752E+01    0.3455752E+01    0.3455752E+01    0.3455752E+01    0.3455752E+01    0.3455752E+01    0.3455752E+01    0.3455752E+01
  0.3455752E+01    0.3455752E+01    0.3455752E+01    0.3769911E+01    0.3769911E+01    0.3769911E+01    0.3769911E+01    0.3769911E+01    0.3769911E+01    0.3769911E+01
  0.3769911E+01    0.3769911E+01    0.3769911E+01    0.3769911E+01    0.3769911E+01    0.3769911E+01    0.3769911E+01    0.3769911E+01    0.3769911E+01    0.3769911E+01
  0.3769911E+01    0.3769911E+01    0.3769911E+01    0.3769911E+01    0.4084071E+01    0.4084071E+01    0.4084071E+01    0.4084071E+01    0.4084071E+01    0.4084071E+01
  0.4084071E+01    0.4084071E+01    0.4084071E+01    0.4084071E+01    0.4084071E+01    0.4084071E+01    0.4084071E+01    0.4084071E+01    0.4084071E+01    0.4084071E+01
  0.4084071E+01    0.4084071E+01    0.4084071E+01    0.4084071E+01    0.4084071E+01    0.4398230E+01    0.4398230E+01    0.4398230E+01    0.4398230E+01    0.4398230E+01
  0.4398230E+01    0.4398230E+01    0.4398230E+01    0.4398230E+01    0.4398230E+01    0.4398230E+01    0.4398230E+01    0.4398230E+01    0.4398230E+01    0.4398230E+01
  0.4398230E+01    0.4398230E+01    0.4398230E+01    0.4398230E+01    0.4398230E+01    0.4398230E+01    0.4712389E+01    0.4712389E+01    0.4712389E+01    0.4712389E+01
  0.4712389E+01    0.4712389E+01    0.4712389E+01    0.4712389E+01    0.4712389E+01    0.4712389E+01    0.4712389E+01    0.4712389E+01    0.4712389E+01    0.4712389E+01
  0.4712389E+01    0.4712389E+01    0.4712389E+01    0.4712389E+01    0.4712389E+01    0.4712389E+01    0.4712389E+01    0.5026548E+01    0.5026548E+01    0.5026548E+01
  0.5026548E+01    0.5026548E+01    0.5026548E+01    0.5026548E+01    0.5026548E+01    0.5026548E+01    0.5026548E+01    0.5026548E+01    0.5026548E+01    0.5026548E+01
  0.5026548E+01    0.5026548E+01    0.5026548E+01    0.5026548E+01    0.5026548E+01    0.5026548E+01    0.5026548E+01    0.5026548E+01    0.5340708E+01    0.5340708E+01
  0.5340708E+01    0.5340708E+01    0.5340708E+01    0.5340708E+01    0.5340708E+01    0.5340708E+01    0.5340708E+01    0.5340708E+01    0.5340708E+01    0.5340708E+01
  0.5340708E+01    0.5340708E+01    0.5340708E+01    0.5340708E+01    0.5340708E+01    0.5340708E+01    0.5340708E+01    0.5340708E+01    0.5340708E+01    0.5654867E+01
  0.5654867E+01    0.5654867E+01    0.5654867E+01    0.5654867E+01    0.5654867E+01    0.5654867E+01    0.5654867E+01    0.5654867E+01    0.5654867E+01    0.5654867E+01
  0.5654867E+01    0.5654867E+01    0.5654867E+01    0.5654867E+01    0.5654867E+01    0.5654867E+01    0.5654867E+01    0.5654867E+01    0.5654867E+01    0.5654867E+01
  0.5969026E+01    0.5969026E+01    0.5969026E+01    0.5969026E+01    0.5969026E+01    0.5969026E+01    0.5969026E+01    0.5969026E+01    0.5969026E+01    0.5969026E+01
  0.5969026E+01    0.5969026E+01    0.5969026E+01    0.5969026E+01    0.5969026E+01    0.5969026E+01    0.5969026E+01    0.5969026E+01    0.5969026E+01    0.5969026E+01
  0.5969026E+01    0.6283185E+01    0.6283185E+01    0.6283185E+01    0.6283185E+01    0.6283185E+01    0.6283185E+01    0.6283185E+01    0.6283185E+01    0.6283185E+01
  0.6283185E+01    0.6283185E+01    0.6283185E+01    0.6283185E+01    0.6283185E+01    0.6283185E+01    0.6283185E+01    0.6283185E+01    0.6283185E+01    0.6283185E+01
  0.6283185E+01    0.6283185E+01   -0.1526062E+00   -0.1376681E+00   -0.1092540E+00   -0.7014539E-01   -0.2417045E-01    0.2417046E-01    0.7014540E-01    0.1092540E+00
  0.1376681E+00    0.1526062E+00    0.1526062E+00    0.1376681E+00    0.1092540E+00    0.7014538E-01    0.2417044E-01   -0.2417048E-01   -0.7014541E-01   -0.1092540E+00
 -0.1376681E+00   -0.1526062E+00   -0.4428806E+00   -0.3995283E+00   -0.3170675E+00   -0.2035698E+00   -0.7014537E-01    0.7014541E-01    0.2035699E+00    0.3170675E+00
  0.3995284E+00    0.4428806E+00    0.4428806E+00    0.3995283E+00    0.3170674E+00    0.2035698E+00    0.7014534E-01   -0.7014545E-01   -0.2035699E+00   -0.3170675E+00
 -0.3995284E+00   -0.4428806E+00   -0.6898027E+00   -0.6222800E+00   -0.4938442E+00   -0.3170675E+00   -0.1092540E+00    0.1092540E+00    0.3170675E+00    0.4938442E+00
  0.6222800E+00    0.6898027E+00    0.6898027E+00    0.6222799E+00    0.4938441E+00    0.3170674E+00    0.1092539E+00   -0.1092541E+00   -0.3170676E+00   -0.4938443E+00
 -0.6222800E+00   -0.6898027E+00   -0.8692021E+00   -0.7841185E+00   -0.6222800E+00   -0.3995283E+00   -0.1376680E+00    0.1376681E+00    0.3995284E+00    0.6222800E+00
  0.7841185E+00    0.8692021E+00    0.8692020E+00    0.7841185E+00    0.6222799E+00    0.3995282E+00    0.1376680E+00   -0.1376682E+00   -0.3995284E+00   -0.6222801E+00
 -0.7841186E+00   -0.8692021E+00   -0.9635179E+00   -0.8692020E+00   -0.6898026E+00   -0.4428805E+00   -0.1526062E+00    0.1526063E+00    0.4428806E+00    0.6898027E+00
  0.8692021E+00    0.9635179E+00    0.9635179E+00    0.8692020E+00    0.6898026E+00    0.4428805E+00    0.1526061E+00   -0.1526064E+00   -0.4428807E+00   -0.6898028E+00
 -0.8692021E+00   -0.9635179E+00   -0.9635179E+00   -0.8692020E+00   -0.6898026E+00   -0.4428805E+00   -0.1526062E+00    0.1526063E+00    0.4428806E+00    0.6898027E+00
  0.8692021E+00    0.9635179E+00    0.9635179E+00    0.8692020E+00    0.6898026E+00    0.4428805E+00    0.1526061E+00   -0.1526064E+00   -0.4428807E+00   -0.6898027E+00
 -0.8692021E+00   -0.9635179E+00   -0.8692020E+00   -0.7841185E+00   -0.6222799E+00   -0.3995283E+00   -0.1376680E+00    0.1376681E+00    0.3995284E+00    0.6222800E+00
  0.7841185E+00    0.8692020E+00    0.8692020E+00    0.7841184E+00    0.6222799E+00    0.3995282E+00    0.1376680E+00   -0.1376682E+00   -0.3995284E+00   -0.6222800E+00
 -0.7841185E+00   -0.8692020E+00   -0.6898026E+00   -0.6222799E+00   -0.4938441E+00   -0.3170674E+00   -0.1092540E+00    0.1092540E+00    0.3170675E+00    0.4938442E+00
  0.6222799E+00    0.6898026E+00    0.6898026E+00    0.6222799E+00    0.4938441E+00    0.3170674E+00    0.1092539E+00   -0.1092541E+00   -0.3170675E+00   -0.4938442E+00
 -0.6222800E+00   -0.6898026E+00   -0.4428805E+00   -0.3995283E+00   -0.3170674E+00   -0.2035698E+00   -0.7014536E-01    0.7014540E-01    0.2035698E+00    0.3170674E+00
  0.3995283E+00    0.4428805E+00    0.4428805E+00    0.3995282E+00    0.3170674E+00    0.2035698E+00    0.7014532E-01   -0.7014544E-01   -0.2035699E+00   -0.3170675E+00
 -0.3995283E+00   -0.4428805E+00   -0.1526062E+00   -0.1376680E+00   -0.1092539E+00   -0.7014535E-01   -0.2417044E-01    0.2417045E-01    0.7014536E-01    0.1092540E+00
  0.1376680E+00    0.1526062E+00    0.1526062E+00    0.1376680E+00    0.1092539E+00    0.7014534E-01    0.2417042E-01   -0.2417046E-01   -0.7014537E-01   -0.1092540E+00
 -0.1376680E+00   -0.1526062E+00    0.1526063E+00    0.1376682E+00    0.1092541E+00    0.7014543E-01    0.2417046E-01   -0.2417048E-01   -0.7014544E-01   -0.1092541E+00
 -0.1376682E+00   -0.1526063E+00   -0.1526063E+00   -0.1376682E+00   -0.1092541E+00   -0.7014541E-01   -0.2417045E-01    0.2417049E-01    0.7014545E-01    0.1092541E+00
  0.1376682E+00    0.1526063E+00    0.4428806E+00    0.3995284E+00    0.3170675E+00    0.2035699E+00    0.7014539E-01   -0.7014542E-01   -0.2035699E+00   -0.3170676E+00
 -0.3995284E+00   -0.4428807E+00   -0.4428806E+00   -0.3995284E+00   -0.3170675E+00   -0.2035698E+00   -0.7014535E-01    0.7014546E-01    0.2035699E+00    0.3170676E+00
  0.3995284E+00    0.4428807E+00    0.6898027E+00    0.6222800E+00    0.4938442E+00    0.3170675E+00    0.1092540E+00   -0.1092541E+00   -0.3170675E+00   -0.4938443E+00
 -0.6222800E+00   -0.6898027E+00   -0.6898027E+00   -0.6222800E+00   -0.4938442E+00   -0.3170674E+00   -0.1092539E+00    0.1092541E+00    0.3170676E+00    0.4938443E+00
  0.6222801E+00    0.6898027E+00    0.8692021E+00    0.7841185E+00    0.6222800E+00    0.3995283E+00    0.1376681E+00   -0.1376681E+00   -0.3995284E+00   -0.6222800E+00
 -0.7841186E+00   -0.8692021E+00   -0.8692021E+00   -0.7841185E+00   -0.6222799E+00   -0.3995283E+00   -0.1376680E+00    0.1376682E+00    0.3995285E+00    0.6222801E+00
  0.7841186E+00    0.8692021E+00    0.9635179E+00    0.8692021E+00    0.6898026E+00    0.4428805E+00    0.1526062E+00   -0.1526063E+00   -0.4428806E+00   -0.6898027E+00
 -0.8692021E+00   -0.9635179E+00   -0.9635179E+00   -0.8692020E+00   -0.6898026E+00   -0.4428805E+00   -0.1526061E+00    0.1526064E+00    0.4428807E+00    0.6898028E+00
  0.8692021E+00    0.9635179E+00    0.9635179E+00    0.8692020E+00    0.6898026E+00    0.4428805E+00    0.1526062E+00   -0.1526063E+00   -0.4428806E+00   -0.6898027E+00
 -0.8692021E+00   -0.9635179E+00   -0.9635179E+00   -0.8692020E+00   -0.6898026E+00   -0.4428804E+00   -0.1526061E+00    0.1526064E+00    0.4428807E+00    0.6898027E+00
  0.8692021E+00    0.9635179E+00    0.8692020E+00    0.7841184E+00    0.6222799E+00    0.3995283E+00    0.1376680E+00   -0.1376681E+00   -0.3995283E+00   -0.6222800E+00
 -0.7841185E+00   -0.8692020E+00   -0.8692020E+00   -0.7841184E+00   -0.6222798E+00   -0.3995282E+00   -0.1376680E+00    0.1376682E+00    0.3995284E+00    0.6222800E+00
  0.7841185E+00    0.8692020E+00    0.6898025E+00    0.6222799E+00    0.4938441E+00    0.3170674E+00    0.1092540E+00   -0.1092540E+00   -0.3170675E+00   -0.4938441E+00
 -0.6222799E+00   -0.6898025E+00   -0.6898025E+00   -0.6222798E+00   -0.4938440E+00   -0.3170674E+00   -0.1092539E+00    0.1092541E+00    0.3170675E+00    0.4938442E+00
  0.6222799E+00    0.6898026E+00    0.4428804E+00    0.3995282E+00    0.3170674E+00    0.2035698E+00    0.7014535E-01   -0.7014539E-01   -0.2035698E+00   -0.3170674E+00
 -0.3995282E+00   -0.4428804E+00   -0.4428804E+00   -0.3995282E+00   -0.3170673E+00   -0.2035697E+00   -0.7014531E-01    0.7014543E-01    0.2035698E+00    0.3170674E+00
  0.3995282E+00    0.4428804E+00    0.1526061E+00    0.1376679E+00    0.1092539E+00    0.7014531E-01    0.2417042E-01   -0.2417044E-01   -0.7014532E-01   -0.1092539E+00
 -0.1376679E+00   -0.1526061E+00   -0.1526061E+00   -0.1376679E+00   -0.1092539E+00   -0.7014530E-01   -0.2417041E-01    0.2417045E-01    0.7014533E-01    0.1092539E+00
  0.1376679E+00    0.1526061E+00    0.1526062E+00    0.4428806E+00    0.6898027E+00    0.8692021E+00    0.9635179E+00    0.9635179E+00    0.8692020E+00    0.6898026E+00
  0.4428805E+00    0.1526062E+00   -0.1526063E+00   -0.4428806E+00   -0.6898027E+00   -0.8692021E+00   -0.9635179E+00   -0.9635179E+00   -0.8692020E+00   -0.6898025E+00
 -0.4428804E+00   -0.1526061E+00    0.1376681E+00    0.3995283E+00    0.6222800E+00    0.7841185E+00    0.8692020E+00    0.8692020E+00    0.7841185E+00    0.6222799E+00
  0.3995283E+00    0.1376680E+00   -0.1376682E+00   -0.3995284E+00   -0.6222800E+00   -0.7841185E+00   -0.8692021E+00   -0.8692020E+00   -0.7841184E+00   -0.6222799E+00
 -0.3995282E+00   -0.1376679E+00    0.1092540E+00    0.3170675E+00    0.4938442E+00    0.6222800E+00    0.6898026E+00    0.6898026E+00    0.6222799E+00    0.4938441E+00
  0.3170674E+00    0.1092539E+00   -0.1092541E+00   -0.3170675E+00   -0.4938442E+00   -0.6222800E+00   -0.6898026E+00   -0.6898026E+00   -0.6222799E+00   -0.4938441E+00
 -0.3170674E+00   -0.1092539E+00    0.7014539E-01    0.2035698E+00    0.3170675E+00    0.3995283E+00    0.4428805E+00    0.4428805E+00    0.3995283E+00    0.3170674E+00
  0.2035698E+00    0.7014535E-01   -0.7014543E-01   -0.2035699E+00   -0.3170675E+00   -0.3995283E+00   -0.4428805E+00   -0.4428805E+00   -0.3995283E+00   -0.3170674E+00
 -0.2035698E+00   -0.7014531E-01    0.2417045E-01    0.7014537E-01    0.1092540E+00    0.1376680E+00    0.1526062E+00    0.1526062E+00    0.1376680E+00    0.1092540E+00
  0.7014536E-01    0.2417044E-01   -0.2417046E-01   -0.7014539E-01   -0.1092540E+00   -0.1376681E+00   -0.1526062E+00   -0.1526062E+00   -0.1376680E+00   -0.1092540E+00
 -0.7014535E-01   -0.2417042E-01   -0.2417046E-01   -0.7014541E-01   -0.1092540E+00   -0.1376681E+00   -0.1526063E+00   -0.1526063E+00   -0.1376681E+00   -0.1092540E+00
 -0.7014540E-01   -0.2417045E-01    0.2417048E-01    0.7014542E-01    0.1092541E+00    0.1376681E+00    0.1526063E+00    0.1526063E+00    0.1376681E+00    0.1092540E+00
  0.7014539E-01    0.2417044E-01   -0.7014540E-01   -0.2035699E+00   -0.3170675E+00   -0.3995284E+00   -0.4428806E+00   -0.4428806E+00   -0.3995284E+00   -0.3170675E+00
 -0.2035698E+00   -0.7014536E-01    0.7014544E-01    0.2035699E+00    0.3170675E+00    0.3995284E+00    0.4428806E+00    0.4428806E+00    0.3995283E+00    0.3170675E+00
  0.2035698E+00    0.7014532E-01   -0.1092540E+00   -0.3170675E+00   -0.4938442E+00   -0.6222800E+00   -0.6898027E+00   -0.6898027E+00   -0.6222800E+00   -0.4938442E+00
 -0.3170674E+00   -0.1092540E+00    0.1092541E+00    0.3170676E+00    0.4938443E+00    0.6222800E+00    0.6898027E+00    0.6898027E+00    0.6222800E+00    0.4938441E+00
  0.3170674E+00    0.1092539E+00   -0.1376681E+00   -0.3995284E+00   -0.6222800E+00   -0.7841185E+00   -0.8692021E+00   -0.8692021E+00   -0.7841185E+00   -0.6222799E+00
 -0.3995283E+00   -0.1376680E+00    0.1376682E+00    0.3995284E+00    0.6222800E+00    0.7841186E+00    0.8692021E+00    0.8692021E+00    0.7841185E+00    0.6222799E+00
  0.3995282E+00    0.1376679E+00   -0.1526062E+00   -0.4428806E+00   -0.6898027E+00   -0.8692021E+00   -0.9635179E+00   -0.9635179E+00   -0.8692020E+00   -0.6898026E+00
 -0.4428805E+00   -0.1526062E+00    0.1526063E+00    0.4428807E+00    0.6898027E+00    0.8692021E+00    0.9635179E+00    0.9635179E+00    0.8692020E+00    0.6898025E+00
  0.4428804E+00    0.1526061E+00   -0.1526062E+00   -0.4428806E+00   -0.6898027E+00   -0.8692020E+00   -0.9635179E+00   -0.9635179E+00   -0.8692020E+00   -0.6898026E+00
 -0.4428805E+00   -0.1526062E+00    0.1526063E+00    0.4428806E+00    0.6898027E+00    0.8692021E+00    0.9635179E+00    0.9635179E+00    0.8692020E+00    0.6898025E+00
  0.4428804E+00    0.1526061E+00   -0.1376681E+00   -0.3995283E+00   -0.6222799E+00   -0.7841185E+00   -0.8692020E+00   -0.8692020E+00   -0.7841184E+00   -0.6222799E+00
 -0.3995282E+00   -0.1376680E+00    0.1376682E+00    0.3995284E+00    0.6222800E+00    0.7841185E+00    0.8692020E+00    0.8692020E+00    0.7841184E+00    0.6222798E+00
  0.3995282E+00    0.1376679E+00   -0.1092540E+00   -0.3170674E+00   -0.4938441E+00   -0.6222799E+00   -0.6898026E+00   -0.6898026E+00   -0.6222799E+00   -0.4938441E+00
 -0.3170674E+00   -0.1092539E+00    0.1092541E+00    0.3170675E+00    0.4938442E+00    0.6222799E+00    0.6898026E+00    0.6898026E+00    0.6222798E+00    0.4938440E+00
  0.3170673E+00    0.1092539E+00   -0.7014538E-01   -0.2035698E+00   -0.3170674E+00   -0.3995282E+00   -0.4428805E+00   -0.4428805E+00   -0.3995282E+00   -0.3170674E+00
 -0.2035698E+00   -0.7014534E-01    0.7014541E-01    0.2035698E+00    0.3170674E+00    0.3995283E+00    0.4428805E+00    0.4428804E+00    0.3995282E+00    0.3170674E+00
  0.2035697E+00    0.7014530E-01   -0.2417044E-01   -0.7014534E-01   -0.1092539E+00   -0.1376680E+00   -0.1526061E+00   -0.1526061E+00   -0.1376680E+00   -0.1092539E+00
 -0.7014532E-01   -0.2417042E-01    0.2417045E-01    0.7014535E-01    0.1092539E+00    0.1376680E+00    0.1526061E+00    0.1526061E+00    0.1376680E+00    0.1092539E+00
  0.7014531E-01    0.2417041E-01    0.2417048E-01    0.7014545E-01    0.1092541E+00    0.1376682E+00    0.1526064E+00    0.1526064E+00    0.1376682E+00    0.1092541E+00
  0.7014544E-01    0.2417046E-01   -0.2417049E-01   -0.7014546E-01   -0.1092541E+00   -0.1376682E+00   -0.1526064E+00   -0.1526064E+00   -0.1376682E+00   -0.1092541E+00
 -0.7014543E-01   -0.2417045E-01    0.7014541E-01    0.2035699E+00    0.3170676E+00    0.3995284E+00    0.4428807E+00    0.4428807E+00    0.3995284E+00    0.3170675E+00
  0.2035699E+00    0.7014537E-01   -0.7014545E-01   -0.2035699E+00   -0.3170676E+00   -0.3995285E+00   -0.4428807E+00   -0.4428807E+00   -0.3995284E+00   -0.3170675E+00
 -0.2035698E+00   -0.7014533E-01    0.1092540E+00    0.3170675E+00    0.4938443E+00    0.6222801E+00    0.6898028E+00    0.6898027E+00    0.6222800E+00    0.4938442E+00
  0.3170675E+00    0.1092540E+00   -0.1092541E+00   -0.3170676E+00   -0.4938443E+00   -0.6222801E+00   -0.6898028E+00   -0.6898027E+00   -0.6222800E+00   -0.4938442E+00
 -0.3170674E+00   -0.1092539E+00    0.1376681E+00    0.3995284E+00    0.6222800E+00    0.7841186E+00    0.8692021E+00    0.8692021E+00    0.7841185E+00    0.6222800E+00
  0.3995283E+00    0.1376680E+00   -0.1376682E+00   -0.3995284E+00   -0.6222801E+00   -0.7841186E+00   -0.8692021E+00   -0.8692021E+00   -0.7841185E+00   -0.6222799E+00
 -0.3995282E+00   -0.1376679E+00    0.1526062E+00    0.4428806E+00    0.6898027E+00    0.8692021E+00    0.9635179E+00    0.9635179E+00    0.8692020E+00    0.6898026E+00
  0.4428805E+00    0.1526062E+00   -0.1526063E+00   -0.4428807E+00   -0.6898027E+00   -0.8692021E+00   -0.9635179E+00   -0.9635179E+00   -0.8692020E+00   -0.6898026E+00
 -0.4428804E+00   -0.1526061E+00   -0.4755283E+00   -0.3847104E+00   -0.2377641E+00   -0.9081780E-01    0.6753780E-08   -0.6753782E-08   -0.9081784E-01   -0.2377642E+00
 -0.3847105E+00   -0.4755283E+00   -0.4755282E+00   -0.3847104E+00   -0.2377641E+00   -0.9081777E-01    0.2026134E-07   -0.2026135E-07   -0.9081787E-01   -0.2377642E+00
 -0.3847105E+00   -0.4755283E+00   -0.3847104E+00   -0.2938926E+00   -0.1469463E+00    0.1768163E-07    0.9081783E-01    0.9081781E-01   -0.1768163E-07   -0.1469463E+00
 -0.2938927E+00   -0.3847104E+00   -0.3847104E+00   -0.2938926E+00   -0.1469463E+00    0.5304488E-07    0.9081784E-01    0.9081780E-01   -0.5304489E-07   -0.1469464E+00
 -0.2938927E+00   -0.3847105E+00   -0.2377641E+00   -0.1469463E+00    0.2185570E-07    0.1469463E+00    0.2377641E+00    0.2377641E+00    0.1469463E+00   -0.2185570E-07
 -0.1469463E+00   -0.2377641E+00   -0.2377641E+00   -0.1469463E+00    0.6556709E-07    0.1469464E+00    0.2377642E+00    0.2377641E+00    0.1469463E+00   -0.6556709E-07
 -0.1469464E+00   -0.2377641E+00   -0.9081780E-01    0.1768163E-07    0.1469463E+00    0.2938927E+00    0.3847105E+00    0.3847104E+00    0.2938926E+00    0.1469463E+00
 -0.1768163E-07   -0.9081782E-01   -0.9081779E-01    0.5304489E-07    0.1469464E+00    0.2938927E+00    0.3847105E+00    0.3847104E+00    0.2938926E+00    0.1469462E+00