 TITLE = "NAVIER-STOKES OUTPUT"
 VARIABLES = "X", "Y", "U", "V", "P", "Pex", "Vor"
 ZONE I =   21, J =   21, DATAPACKING = BLOCK, VARLOCATION=(3=CELLCENTERED, 4=CELLCENTERED,5=CELLCENTERED,6=CELLCENTERED, 7=CELLCENTERED)
  0.0000000E+00    0.3141593E+00    0.6283185E+00    0.9424778E+00    0.1256637E+01    0.1570796E+01    0.1884956E+01    0.2199115E+01    0.2513274E+01    0.2827433E+01
  0.3141593E+01    0.3455752E+01    0.3769911E+01    0.4084071E+01    0.4398230E+01    0.4712389E+01    0.5026548E+01    0.5340708E+01    0.5654867E+01    0.5969026E+01
  0.6283185E+01    0.0000000E+00    0.3141593E+00    0.6283185E+00    0.9424778E+00    0.1256637E+01    0.1570796E+01    0.1884956E+01    0.2199115E+01    0.2513274E+01
  0.2827433E+01    0.3141593E+01    0.3455752E+01    0.3769911E+01    0.4084071E+01    0.4398230E+01    0.4712389E+01    0.5026548E+01    0.5340708E+01    0.5654867E+01
  0.5969026E+01    0.6283185E+01    0.0000000E+00    0.3141593E+00    0.6283185E+00    0.9424778E+00    0.1256637E+01    0.1570796E+01    0.1884956E+01    0.2199115E+01
  0.2513274E+01    0.2827433E+01    0.3141593E+01    0.3455752E+01    0.3769911E+01    0.4084071E+01    0.4398230E+01    0.4712389E+01    0.5026548E+01    0.5340708E+01
  0.5654867E+01    0.5969026E+01    0.6283185E+01    0.0000000E+00    0.3141593E+00    0.6283185E+00    0.9424778E+00    0.1256637E+01    0.1570796E+01    0.1884956E+01
  0.2199115E+01    0.2513274E+01    0.2827433E+01    0.3141593E+01    0.3455752E+01    0.3769911E+01    0.4084071E+01    0.4398230E+01    0.4712389E+01    0.5026548E+01
  0.5340708E+01    0.5654867E+01    0.5969026E+01    0.6283185E+01    0.0000000E+00    0.3141593E+00    0.6283185E+00    0.9424778E+00    0.1256637E+01    0.1570796E+01
  0.1884956E+01    0.2199115E+01    0.2513274E+01    0.2827433E+01    0.3141593E+01    0.3455752E+01    0.3769911E+01    0.4084071E+01    0.4398230E+01    0.4712389E+01
  0.5026548E+01    0.5340708E+01    0.5654867E+01    0.5969026E+01    0.6283185E+01    0.0000000E+00    0.3141593E+00    0.6283185E+00    0.9424778E+00    0.1256637E+01
  0.1570796E+01    0.1884956E+01    0.2199115E+01    0.2513274E+01    0.2827433E+01    0.3141593E+01    0.3455752E+01    0.3769911E+01    0.4084071E+01    0.4398230E+01
  0.4712389E+01    0.5026548E+01    0.5340708E+01    0.5654867E+01    0.5969026E+01    0.6283185E+01    0.0000000E+00    0.3141593E+00    0.6283185E+00    0.9424778E+00
  0.1256637E+01    0.1570796E+01    0.1884956E+01    0.2199115E+01    0.2513274E+01    0.2827433E+01    0.3141593E+01    0.3455752E+01    0.3769911E+01    0.4084071E+01
  0.4398230E+01    0.4712389E+01    0.5026548E+01    0.5340708E+01    0.5654867E+01    0.5969026E+01    0.6283185E+01    0.0000000E+00    0.3141593E+00    0.6283185E+00
  0.9424778E+00    0.1256637E+01    0.1570796E+01    0.1884956E+01    0.2199115E+01    0.2513274E+01    0.2827433E+01    0.3141593E+01    0.3455752E+01    0.3769911E+01
  0.4084071E+01    0.4398230E+01    0.4712389E+01    0.5026548E+01    0.5340708E+01    0.5654867E+01    0.5969026E+01    0.6283185E+01    0.0000000E+00    0.3141593E+00
  0.6283185E+00    0.9424778E+00    0.1256637E+01    0.1570796E+01    0.1884956E+01    0.2199115E+01    0.2513274E+01    0.2827433E+01    0.3141593E+01    0.3455752E+01
  0.3769911E+01    0.4084071E+01    0.4398230E+01    0.4712389E+01    0.5026548E+01    0.5340708E+01    0.5654867E+01    0.5969026E+01    0.6283185E+01    0.0000000E+00
  0.3141593E+00    0.6283185E+00    0.9424778E+00    0.1256637E+01    0.1570796E+01    0.1884956E+01    0.2199115E+01    0.2513274E+01    0.2827433E+01    0.3141593E+01
  0.3455752E+01    0.3769911E+01    0.4084071E+01    0.4398230E+01    0.4712389E+01    0.5026548E+01    0.5340708E+01    0.5654867E+01    0.5969026E+01    0.6283185E+01
  0.0000000E+00    0.3141593E+00    0.6283185E+00    0.9424778E+00    0.1256637E+01    0.1570796E+01    0.1884956E+01    0.2199115E+01    0.2513274E+01    0.2827433E+01
  0.3141593E+01    0.3455752E+01    0.3769911E+01    0.4084071E+01    0.4398230E+01    0.4712389E+01    0.5026548E+01    0.5340708E+01    0.5654867E+01    0.5969026E+01
  0.6283185E+01    0.0000000E+00    0.3141593E+00    0.6283185E+00    0.9424778E+00    0.1256637E+01    0.1570796E+01    0.1884956E+01    0.2199115E+01    0.2513274E+01
  0.2827433E+01    0.3141593E+01    0.3455752E+01    0.3769911E+01    0.4084071E+01    0.4398230E+01    0.4712389E+01    0.5026548E+01    0.5340708E+01    0.5654867E+01
  0.5969026E+01    0.6283185E+01    0.0000000E+00    0.3141593E+00    0.6283185E+00    0.9424778E+00    0.1256637E+01    0.1570796E+01    0.1884956E+01    0.2199115E+01
  0.2513274E+01    0.2827433E+01    0.3141593E+01    0.3455752E+01    0.3769911E+01    0.4084071E+01    0.4398230E+01    0.4712389E+01    0.5026548E+01    0.5340708E+01
  0.5654867E+01    0.5969026E+01    0.6283185E+01    0.0000000E+00    0.3141593E+00    0.6283185E+00    0.9424778E+00    0.1256637E+01    0.1570796E+01    0.1884956E+01
  0.2199115E+01    0.2513274E+01    0.2827433E+01    0.3141593E+01    0.3455752E+01    0.3769911E+01    0.4084071E+01    0.4398230E+01    0.4712389E+01    0.5026548E+01
  0.5340708E+01    0.5654867E+01    0.5969026E+01    0.6283185E+01    0.0000000E+00    0.3141593E+00    0.6283185E+00    0.9424778E+00    0.1256637E+01    0.1570796E+01
  0.1884956E+01    0.2199115E+01    0.2513274E+01    0.2827433E+01    0.3141593E+01    0.3455752E+01    0.3769911E+01    0.4084071E+01    0.4398230E+01    0.4712389E+01
  0.5026548E+01    0.5340708E+01    0.5654867E+01    0.5969026E+01    0.6283185E+01    0.0000000E+00    0.3141593E+00    0.6283185E+00    0.9424778E+00    0.1256637E+01
  0.1570796E+01    0.1884956E+01    0.2199115E+01    0.2513274E+01    0.2827433E+01    0.3141593E+01    0.3455752E+01    0.3769911E+01    0.4084071E+01    0.4398230E+01
  0.4712389E+01    0.5026548E+01    0.5340708E+01    0.5654867E+01    0.5969026E+01    0.6283185E+01    0.0000000E+00    0.3141593E+00    0.6283185E+00    0.9424778E+00
  0.1256637E+01    0.1570796E+01    0.1884956E+01    0.2199115E+01    0.2513274E+01    0.2827433E+01    0.3141593E+01    0.3455752E+01    0.3769911E+01    0.4084071E+01
  0.4398230E+01    0.4712389E+01    0.5026548E+01    0.5340708E+01    0.5654867E+01    0.5969026E+01    0.6283185E+01    0.0000000E+00    0.3141593E+00    0.6283185E+00
  0.9424778E+00    0.1256637E+01    0.1570796E+01    0.1884956E+01    0.2199115E+01    0.2513274E+01    0.2827433E+01    0.3141593E+01    0.3455752E+01    0.3769911E+01
  0.4084071E+01    0.4398230E+01    0.4712389E+01    0.5026548E+01    0.5340708E+01    0.5654867E+01    0.5969026E+01    0.6283185E+01    0.0000000E+00    0.3141593E+00
  0.6283185E+00    0.9424778E+00    0.1256637E+01    0.1570796E+01    0.1884956E+01    0.2199115E+01    0.2513274E+01    0.2827433E+01    0.3141593E+01    0.3455752E+01
  0.3769911E+01    0.4084071E+01    0.4398230E+01    0.4712389E+01    0.5026548E+01    0.5340708E+01    0.5654867E+01    0.5969026E+01    0.6283185E+01    0.0000000E+00
  0.3141593E+00    0.6283185E+00    0.9424778E+00    0.1256637E+01    0.1570796E+01    0.1884956E+01    0.2199115E+01    0.2513274E+01    0.2827433E+01    0.3141593E+01
  0.3455752E+01    0.3769911E+01    0.4084071E+01    0.4398230E+01    0.4712389E+01    0.5026548E+01    0.5340708E+01    0.5654867E+01    0.5969026E+01    0.6283185E+01
  0.0000000E+00    0.3141593E+00    0.6283185E+00    0.9424778E+00    0.1256637E+01    0.1570796E+01    0.1884956E+01    0.2199115E+01    0.2513274E+01    0.2827433E+01
  0.3141593E+01    0.3455752E+01    0.3769911E+01    0.4084071E+01    0.4398230E+01    0.4712389E+01    0.5026548E+01    0.5340708E+01    0.5654867E+01    0.5969026E+01
  0.6283185E+01    0.0000000E+00    0.0000000E+00    0.0000000E+00    0.0000000E+00    0.0000000E+00    0.0000000E+00    0.0000000E+00    0.0000000E+00    0.0000000E+00
  0.0000000E+00    0.0000000E+00    0.0000000E+00    0.0000000E+00    0.0000000E+00    0.0000000E+00    0.0000000E+00    0.0000000E+00    0.0000000E+00    0.0000000E+00
  0.0000000E+00    0.0000000E+00    0.3141593E+00    0.3141593E+00    0.3141593E+00    0.3141593E+00    0.3141593E+00    0.3141593E+00    0.3141593E+00    0.3141593E+00
  0.3141593E+00    0.3141593E+00    0.3141593E+00    0.3141593E+00    0.3141593E+00    0.3141593E+00    0.3141593E+00    0.3141593E+00    0.3141593E+00    0.3141593E+00
  0.3141593E+00    0.3141593E+00    0.3141593E+00    0.6283185E+00    0.6283185E+00    0.6283185E+00    0.6283185E+00    0.6283185E+00    0.6283185E+00    0.6283185E+00
  0.6283185E+00    0.6283185E+00    0.6283185E+00    0.6283185E+00    0.6283185E+00    0.6283185E+00    0.6283185E+00    0.6283185E+00    0.6283185E+00    0.6283185E+00
  0.6283185E+00    0.6283185E+00    0.6283185E+00    0.6283185E+00    0.9424778E+00    0.9424778E+00    0.9424778E+00    0.9424778E+00    0.9424778E+00    0.9424778E+00
  0.9424778E+00    0.9424778E+00    0.9424778E+00    0.9424778E+00    0.9424778E+00    0.9424778E+00    0.9424778E+00    0.9424778E+00    0.9424778E+00    0.9424778E+00
  0.9424778E+00    0.9424778E+00    0.9424778E+00    0.9424778E+00    0.9424778E+00    0.1256637E+01    0.1256637E+01    0.1256637E+01    0.1256637E+01    0.1256637E+01
  0.1256637E+01    0.1256637E+01    0.1256637E+01    0.1256637E+01    0.1256637E+01    0.1256637E+01    0.1256637E+01    0.1256637E+01    0.1256637E+01    0.1256637E+01
  0.1256637E+01    0.1256637E+01    0.1256637E+01    0.1256637E+01    0.1256637E+01    0.1256637E+01    0.1570796E+01    0.1570796E+01    0.1570796E+01    0.1570796E+01
  0.1570796E+01    0.1570796E+01    0.1570796E+01    0.1570796E+01    0.1570796E+01    0.1570796E+01    0.1570796E+01    0.1570796E+01    0.1570796E+01    0.1570796E+01
  0.1570796E+01    0.1570796E+01    0.1570796E+01    0.1570796E+01    0.1570796E+01    0.1570796E+01    0.1570796E+01    0.1884956E+01    0.1884956E+01    0.1884956E+01
  0.1884956E+01    0.1884956E+01    0.1884956E+01    0.1884956E+01    0.1884956E+01    0.1884956E+01    0.1884956E+01    0.1884956E+01    0.1884956E+01    0.1884956E+01
  0.1884956E+01    0.1884956E+01    0.1884956E+01    0.1884956E+01    0.1884956E+01    0.1884956E+01    0.1884956E+01    0.1884956E+01    0.2199115E+01    0.2199115E+01
  0.2199115E+01    0.2199115E+01    0.2199115E+01    0.2199115E+01    0.2199115E+01    0.2199115E+01    0.2199115E+01    0.2199115E+01    0.2199115E+01    0.2199115E+01
  0.2199115E+01    0.2199115E+01    0.2199115E+01    0.2199115E+01    0.2199115E+01    0.2199115E+01    0.2199115E+01    0.2199115E+01    0.2199115E+01    0.2513274E+01
  0.2513274E+01    0.2513274E+01    0.2513274E+01    0.2513274E+01    0.2513274E+01    0.2513274E+01    0.2513274E+01    0.2513274E+01    0.2513274E+01    0.2513274E+01
  0.2513274E+01    0.2513274E+01    0.2513274E+01    0.2513274E+01    0.2513274E+01    0.2513274E+01    0.2513274E+01    0.2513274E+01    0.2513274E+01    0.2513274E+01
  0.2827433E+01    0.2827433E+01    0.2827433E+01    0.2827433E+01    0.2827433E+01    0.2827433E+01    0.2827433E+01    0.2827433E+01    0.2827433E+01    0.2827433E+01
  0.2827433E+01    0.2827433E+01    0.2827433E+01    0.2827433E+01    0.2827433E+01    0.2827433E+01    0.2827433E+01    0.2827433E+01    0.2827433E+01    0.2827433E+01
  0.2827433E+01    0.3141593E+01    0.3141593E+01    0.3141593E+01    0.3141593E+01    0.3141593E+01    0.3141593E+01    0.3141593E+01    0.3141593E+01    0.3141593E+01
  0.3141593E+01    0.3141593E+01    0.3141593E+01    0.3141593E+01    0.3141593E+01    0.3141593E+01    0.3141593E+01    0.3141593E+01    0.3141593E+01    0.3141593E+01
  0.3141593E+01    0.3141593E+01    0.3455752E+01    0.3455752E+01    0.3455752E+01    0.3455752E+01    0.3455752E+01    0.3455752E+01    0.3455752E+01    0.3455752E+01
  0.3455752E+01    0.3455752E+01    0.3455752E+01    0.3455752E+01    0.3455752E+01    0.3455752E+01    0.3455752E+01    0.3455752E+01    0.3455752E+01    0.3455752E+01
  0.3455752E+01    0.3455752E+01    0.3455752E+01    0.3769911E+01    0.3769911E+01    0.3769911E+01    0.3769911E+01    0.3769911E+01    0.3769911E+01    0.3769911E+01
  0.3769911E+01    0.3769911E+01    0.3769911E+01    0.3769911E+01    0.3769911E+01    0.3769911E+01    0.3769911E+01    0.3769911E+01    0.3769911E+01    0.3769911E+01
  0.3769911E+01    0.3769911E+01    0.3769911E+01    0.3769911E+01    0.4084071E+01    0.4084071E+01    0.4084071E+01    0.4084071E+01    0.4084071E+01    0.4084071E+01
  0.4084071E+01    0.4084071E+01    0.4084071E+01    0.4084071E+01    0.4084071E+01    0.4084071E+01    0.4084071E+01    0.4084071E+01    0.4084071E+01    0.4084071E+01
  0.4084071E+01    0.4084071E+01    0.4084071E+01    0.4084071E+01    0.4084071E+01    0.4398230E+01    0.4398230E+01    0.4398230E+01    0.4398230E+01    0.4398230E+01
  0.4398230E+01    0.4398230E+01    0.4398230E+01    0.4398230E+01    0.4398230E+01    0.4398230E+01    0.4398230E+01    0.4398230E+01    0.4398230E+01    0.4398230E+01
  0.4398230E+01    0.4398230E+01    0.4398230E+01    0.4398230E+01    0.4398230E+01    0.4398230E+01    0.4712389E+01    0.4712389E+01    0.4712389E+01    0.4712389E+01
  0.4712389E+01    0.4712389E+01    0.4712389E+01    0.4712389E+01    0.4712389E+01    0.4712389E+01    0.4712389E+01    0.4712389E+01    0.4712389E+01    0.4712389E+01
  0.4712389E+01    0.4712389E+01    0.4712389E+01    0.4712389E+01    0.4712389E+01    0.4712389E+01    0.4712389E+01    0.5026548E+01    0.5026548E+01    0.5026548E+01
  0.5026548E+01    0.5026548E+01    0.5026548E+01    0.5026548E+01    0.5026548E+01    0.5026548E+01    0.5026548E+01    0.5026548E+01    0.5026548E+01    0.5026548E+01
  0.5026548E+01    0.5026548E+01    0.5026548E+01    0.5026548E+01    0.5026548E+01    0.5026548E+01    0.5026548E+01    0.5026548E+01    0.5340708E+01    0.5340708E+01
  0.5340708E+01    0.5340708E+01    0.5340708E+01    0.5340708E+01    0.5340708E+01    0.5340708E+01    0.5340708E+01    0.5340708E+01    0.5340708E+01    0.5340708E+01
  0.5340708E+01    0.5340708E+01    0.5340708E+01    0.5340708E+01    0.5340708E+01    0.5340708E+01    0.5340708E+01    0.5340708E+01    0.5340708E+01    0.5654867E+01
  0.5654867E+01    0.5654867E+01    0.5654867E+01    0.5654867E+01    0.5654867E+01    0.5654867E+01    0.5654867E+01    0.5654867E+01    0.5654867E+01    0.5654867E+01
  0.5654867E+01    0.5654867E+01    0.5654867E+01    0.5654867E+01    0.5654867E+01    0.5654867E+01    0.5654867E+01    0.5654867E+01    0.5654867E+01    0.5654867E+01
  0.5969026E+01    0.5969026E+01    0.5969026E+01    0.5969026E+01    0.5969026E+01    0.5969026E+01    0.5969026E+01    0.5969026E+01    0.5969026E+01    0.5969026E+01
  0.5969026E+01    0.5969026E+01    0.5969026E+01    0.5969026E+01    0.5969026E+01    0.5969026E+01    0.5969026E+01    0.5969026E+01    0.5969026E+01    0.5969026E+01
  0.5969026E+01    0.6283185E+01    0.6283185E+01    0.6283185E+01    0.6283185E+01    0.6283185E+01    0.6283185E+01    0.6283185E+01    0.6283185E+01    0.6283185E+01
  0.6283185E+01    0.6283185E+01    0.6283185E+01    0.6283185E+01    0.6283185E+01    0.6283185E+01    0.6283185E+01    0.6283185E+01    0.6283185E+01    0.6283185E+01
  0.6283185E+01    0.6283185E+01   -0.3890141E-02   -0.3509395E-02   -0.2784885E-02   -0.1787717E-02   -0.6158383E-03    0.6165189E-03    0.1788673E-02    0.2785631E-02
  0.3510022E-02    0.3890226E-02    0.3889280E-02    0.3508824E-02    0.2785148E-02    0.1787978E-02    0.6164157E-03   -0.6152871E-03   -0.1787912E-02   -0.2784609E-02
 -0.3508411E-02   -0.3890570E-02   -0.1128697E-01   -0.1018208E-01   -0.8080323E-02   -0.5187509E-02   -0.1786967E-02    0.1788556E-02    0.5189024E-02    0.8081562E-02
  0.1018324E-01    0.1128777E-01    0.1128730E-01    0.1018259E-01    0.8081095E-02    0.5188260E-02    0.1787858E-02   -0.1787493E-02   -0.5188259E-02   -0.8080819E-02
 -0.1018231E-01   -0.1128760E-01   -0.1757869E-01   -0.1585811E-01   -0.1258486E-01   -0.8079509E-02   -0.2783249E-02    0.2785479E-02    0.8081566E-02    0.1258658E-01
  0.1585972E-01    0.1758044E-01    0.1758024E-01    0.1585932E-01    0.1258594E-01    0.8080421E-02    0.2784102E-02   -0.2784666E-02   -0.8081025E-02   -0.1258623E-01
 -0.1585936E-01   -0.1758036E-01   -0.2215078E-01   -0.1998226E-01   -0.1585765E-01   -0.1018068E-01   -0.3507133E-02    0.3509779E-02    0.1018314E-01    0.1585970E-01
  0.1998399E-01    0.2215220E-01    0.2215194E-01    0.1998337E-01    0.1585863E-01    0.1018140E-01    0.3507722E-02   -0.3509301E-02   -0.1018298E-01   -0.1585973E-01
 -0.1998410E-01   -0.2215272E-01   -0.2455455E-01   -0.2215054E-01   -0.1757832E-01   -0.1128538E-01   -0.3887727E-02    0.3890528E-02    0.1128794E-01    0.1758043E-01
  0.2215215E-01    0.2455548E-01    0.2455513E-01    0.2215120E-01    0.1757885E-01    0.1128569E-01    0.3887908E-02   -0.3890511E-02   -0.1128819E-01   -0.1758082E-01
 -0.2215259E-01   -0.2455590E-01   -0.2455430E-01   -0.2215058E-01   -0.1757841E-01   -0.1128545E-01   -0.3887807E-02    0.3890402E-02    0.1128779E-01    0.1758023E-01
  0.2215184E-01    0.2455510E-01    0.2455467E-01    0.2215065E-01    0.1757833E-01    0.1128522E-01    0.3887440E-02   -0.3890872E-02   -0.1128847E-01   -0.1758108E-01
 -0.2215275E-01   -0.2455612E-01   -0.2215155E-01   -0.1998272E-01   -0.1585792E-01   -0.1018091E-01   -0.3507404E-02    0.3509428E-02    0.1018267E-01    0.1585907E-01
  0.1998313E-01    0.2215106E-01    0.2215056E-01    0.1998186E-01    0.1585712E-01    0.1018001E-01    0.3506473E-02   -0.3510379E-02   -0.1018383E-01   -0.1586036E-01
 -0.1998451E-01   -0.2215282E-01   -0.1758016E-01   -0.1585876E-01   -0.1258519E-01   -0.8079841E-02   -0.2783686E-02    0.2784886E-02    0.8080725E-02    0.1258549E-01
  0.1585829E-01    0.1757866E-01    0.1757824E-01    0.1585712E-01    0.1258366E-01    0.8078347E-02    0.2782256E-02   -0.2786327E-02   -0.8082264E-02   -0.1258708E-01
 -0.1585990E-01   -0.1758019E-01   -0.1128716E-01   -0.1018223E-01   -0.8080497E-02   -0.5187837E-02   -0.1787502E-02    0.1787681E-02    0.5187779E-02    0.8079925E-02
  0.1018107E-01    0.1128556E-01    0.1128522E-01    0.1018011E-01    0.8078467E-02    0.5185903E-02    0.1785620E-02   -0.1789480E-02   -0.5189578E-02   -0.8081779E-02
 -0.1018286E-01   -0.1128732E-01   -0.3890222E-02   -0.3509197E-02   -0.2784827E-02   -0.1788025E-02   -0.6163939E-03    0.6154923E-03    0.1786981E-02    0.2783356E-02
  0.3507252E-02    0.3887716E-02    0.3887441E-02    0.3506642E-02    0.2782471E-02    0.1785735E-02    0.6142279E-03   -0.6175125E-03   -0.1789026E-02   -0.2785365E-02
 -0.3509179E-02   -0.3889897E-02    0.3887839E-02    0.3507454E-02    0.2783466E-02    0.1786797E-02    0.6150796E-03   -0.6169689E-03   -0.1788807E-02   -0.2785651E-02
 -0.3509906E-02   -0.3890758E-02   -0.3890832E-02   -0.3510121E-02   -0.2785988E-02   -0.1789202E-02   -0.6173427E-03    0.6147785E-03    0.1786677E-02    0.2783650E-02
  0.3508011E-02    0.3889095E-02    0.1128625E-01    0.1018102E-01    0.8079328E-02    0.5186744E-02    0.1786316E-02   -0.1789098E-02   -0.5189470E-02   -0.8082013E-02
 -0.1018357E-01   -0.1128835E-01   -0.1128829E-01   -0.1018339E-01   -0.8081695E-02   -0.5189059E-02   -0.1788614E-02    0.1786919E-02    0.5187398E-02    0.8079995E-02
  0.1018175E-01    0.1128676E-01    0.1757866E-01    0.1585764E-01    0.1258424E-01    0.8078899E-02    0.2782610E-02   -0.2786099E-02   -0.8082207E-02   -0.1258735E-01
 -0.1586038E-01   -0.1758101E-01   -0.1758088E-01   -0.1585981E-01   -0.1258639E-01   -0.8081122E-02   -0.2784779E-02    0.2784049E-02    0.8080144E-02    0.1258538E-01
  0.1585852E-01    0.1757882E-01    0.2215011E-01    0.1998180E-01    0.1585717E-01    0.1018012E-01    0.3506495E-02   -0.3510439E-02   -0.1018388E-01   -0.1586051E-01
 -0.1998470E-01   -0.2215282E-01   -0.2215251E-01   -0.1998383E-01   -0.1585917E-01   -0.1018211E-01   -0.3508433E-02    0.3508496E-02    0.1018199E-01    0.1585874E-01
  0.1998295E-01    0.2215124E-01    0.2455475E-01    0.2215028E-01    0.1757783E-01    0.1128479E-01    0.3887061E-02   -0.3891229E-02   -0.1128865E-01   -0.1758117E-01
 -0.2215287E-01   -0.2455611E-01   -0.2455575E-01   -0.2215183E-01   -0.1757951E-01   -0.1128650E-01   -0.3888824E-02    0.3889566E-02    0.1128708E-01    0.1757959E-01
  0.2215143E-01    0.2455500E-01    0.2455396E-01    0.2214995E-01    0.1757766E-01    0.1128470E-01    0.3887032E-02   -0.3891119E-02   -0.1128845E-01   -0.1758093E-01
 -0.2215247E-01   -0.2455571E-01   -0.2455544E-01   -0.2215144E-01   -0.1757916E-01   -0.1128627E-01   -0.3888503E-02    0.3889807E-02    0.1128712E-01    0.1757967E-01
  0.2215118E-01    0.2455367E-01    0.2214923E-01    0.1998120E-01    0.1585674E-01    0.1017989E-01    0.3506503E-02   -0.3510136E-02   -0.1018326E-01   -0.1585962E-01
 -0.1998364E-01   -0.2215172E-01   -0.2215141E-01   -0.1998279E-01   -0.1585821E-01   -0.1018121E-01   -0.3507638E-02    0.3509109E-02    0.1018243E-01    0.1585895E-01
  0.1998289E-01    0.2215112E-01    0.1757905E-01    0.1585723E-01    0.1258374E-01    0.8078632E-02    0.2782752E-02   -0.2785557E-02   -0.8081167E-02   -0.1258582E-01
 -0.1585868E-01   -0.1757924E-01   -0.1757911E-01   -0.1585827E-01   -0.1258490E-01   -0.8079629E-02   -0.2783611E-02    0.2785036E-02    0.8080979E-02    0.1258568E-01
  0.1585868E-01    0.1757957E-01    0.1128508E-01    0.1018032E-01    0.8078863E-02    0.5186618E-02    0.1786612E-02   -0.1788259E-02   -0.5187988E-02   -0.8080009E-02
 -0.1018122E-01   -0.1128600E-01   -0.1128622E-01   -0.1018142E-01   -0.8079759E-02   -0.5187285E-02   -0.1786989E-02    0.1788317E-02    0.5188339E-02    0.8080419E-02
  0.1018153E-01    0.1128498E-01    0.3886644E-02    0.3506940E-02    0.2783194E-02    0.1786962E-02    0.6156977E-03   -0.6159010E-03   -0.1786980E-02   -0.2783188E-02
 -0.3507171E-02   -0.3888036E-02   -0.3888474E-02   -0.3508084E-02   -0.2783750E-02   -0.1786877E-02   -0.6155419E-03    0.6164613E-03    0.1788153E-02    0.2784066E-02
  0.3508310E-02    0.3889625E-02    0.3880486E-02    0.1127773E-01    0.1756970E-01    0.2213940E-01    0.2454037E-01    0.2453803E-01    0.2213178E-01    0.1755817E-01
  0.1126471E-01    0.3865022E-02   -0.3912023E-02   -0.1130799E-01   -0.1760024E-01   -0.2217075E-01   -0.2457077E-01   -0.2456920E-01   -0.2216445E-01   -0.1758878E-01
 -0.1129615E-01   -0.3899013E-02    0.3499736E-02    0.1017274E-01    0.1584837E-01    0.1997072E-01    0.2213653E-01    0.2213397E-01    0.1996320E-01    0.1583716E-01
  0.1015967E-01    0.3485266E-02   -0.3531028E-02   -0.1020370E-01   -0.1587934E-01   -0.2000189E-01   -0.2216752E-01   -0.2216536E-01   -0.1999520E-01   -0.1586860E-01
 -0.1019095E-01   -0.3517145E-02    0.2775819E-02    0.8071191E-02    0.1257492E-01    0.1584604E-01    0.1756440E-01    0.1756186E-01    0.1583878E-01    0.1256401E-01
  0.8058060E-02    0.2761599E-02   -0.2806803E-02   -0.8102190E-02   -0.1260593E-01   -0.1587709E-01   -0.1759550E-01   -0.1759321E-01   -0.1587040E-01   -0.1259553E-01
 -0.8089311E-02   -0.2792714E-02    0.1779255E-02    0.5178653E-02    0.8069617E-02    0.1016908E-01    0.1127152E-01    0.1126911E-01    0.1016213E-01    0.8059020E-02
  0.5165674E-02    0.1765088E-02   -0.1809984E-02   -0.5209454E-02   -0.8100455E-02   -0.1019999E-01   -0.1130252E-01   -0.1130028E-01   -0.1019352E-01   -0.8090391E-02
 -0.5196793E-02   -0.1795895E-02    0.6071855E-03    0.1778086E-02    0.2773300E-02    0.3495435E-02    0.3873867E-02    0.3871581E-02    0.3488830E-02    0.2763160E-02
  0.1765574E-02    0.5935962E-03   -0.6380586E-03   -0.1808808E-02   -0.2804031E-02   -0.3526211E-02   -0.3904729E-02   -0.3902635E-02   -0.3520032E-02   -0.2794361E-02
 -0.1796656E-02   -0.6243690E-03   -0.6249920E-03   -0.1797441E-02   -0.2795555E-02   -0.3521572E-02   -0.3904411E-02   -0.3906580E-02   -0.3527797E-02   -0.2805146E-02
 -0.1809396E-02   -0.6380133E-03    0.5942825E-03    0.1766850E-02    0.2764991E-02    0.3490980E-02    0.3873692E-02    0.3875710E-02    0.3496816E-02    0.2774083E-02
  0.1778383E-02    0.6071757E-03   -0.1796917E-02   -0.5198059E-02   -0.8091885E-02   -0.1019516E-01   -0.1130200E-01   -0.1130400E-01   -0.1020096E-01   -0.8100887E-02
 -0.5209278E-02   -0.1809255E-02    0.1766332E-02    0.5167555E-02    0.8061420E-02    0.1016463E-01    0.1127139E-01    0.1127328E-01    0.1017010E-01    0.8069980E-02
  0.5178450E-02    0.1778569E-02   -0.2794295E-02   -0.8091029E-02   -0.1259736E-01   -0.1587216E-01   -0.1759479E-01   -0.1759663E-01   -0.1587751E-01   -0.1260565E-01
 -0.8101340E-02   -0.2805556E-02    0.2763407E-02    0.8060363E-02    0.1256675E-01    0.1584157E-01    0.1756417E-01    0.1756589E-01    0.1584670E-01    0.1257485E-01
  0.8070538E-02    0.2774872E-02   -0.3518720E-02   -0.1019287E-01   -0.1587079E-01   -0.1999669E-01   -0.2216670E-01   -0.2216843E-01   -0.2000163E-01   -0.1587843E-01
 -0.1020246E-01   -0.3529268E-02    0.3487901E-02    0.1016211E-01    0.1584012E-01    0.1996608E-01    0.2213604E-01    0.2213773E-01    0.1997091E-01    0.1584764E-01
  0.1017167E-01    0.3498472E-02   -0.3899581E-02   -0.1129795E-01   -0.1759178E-01   -0.2216510E-01   -0.2457029E-01   -0.2457187E-01   -0.2216970E-01   -0.1759896E-01
 -0.1130695E-01   -0.3909654E-02    0.3868807E-02    0.1126713E-01    0.1756102E-01    0.2213435E-01    0.2453957E-01    0.2454116E-01    0.2213892E-01    0.1756817E-01
  0.1127621E-01    0.3878904E-02   -0.3900095E-02   -0.1129824E-01   -0.1759195E-01   -0.2216519E-01   -0.2457026E-01   -0.2457176E-01   -0.2216958E-01   -0.1759876E-01
 -0.1130677E-01   -0.3909552E-02    0.3868920E-02    0.1126716E-01    0.1756092E-01    0.2213425E-01    0.2453940E-01    0.2454086E-01    0.2213868E-01    0.1756790E-01
  0.1127587E-01    0.3878701E-02   -0.3519289E-02   -0.1019335E-01   -0.1587110E-01   -0.1999675E-01   -0.2216650E-01   -0.2216802E-01   -0.2000107E-01   -0.1587781E-01
 -0.1020189E-01   -0.3528782E-02    0.3488232E-02    0.1016223E-01    0.1584004E-01    0.1996578E-01    0.2213554E-01    0.2213708E-01    0.1997015E-01    0.1584681E-01
  0.1017084E-01    0.3497701E-02   -0.2794769E-02   -0.8091592E-02   -0.1259772E-01   -0.1587214E-01   -0.1759442E-01   -0.1759594E-01   -0.1587658E-01   -0.1260469E-01
 -0.8100412E-02   -0.2804739E-02    0.2763910E-02    0.8060582E-02    0.1256669E-01    0.1584109E-01    0.1756343E-01    0.1756497E-01    0.1584552E-01    0.1257359E-01
  0.8069355E-02    0.2773694E-02   -0.1798253E-02   -0.5198987E-02   -0.8092399E-02   -0.1019523E-01   -0.1130158E-01   -0.1130319E-01   -0.1019994E-01   -0.8099710E-02
 -0.5208159E-02   -0.1808388E-02    0.1766968E-02    0.5167827E-02    0.8061219E-02    0.1016411E-01    0.1127050E-01    0.1127202E-01    0.1016874E-01    0.8068534E-02
  0.5176943E-02    0.1777352E-02   -0.6261051E-03   -0.1798244E-02   -0.2795962E-02   -0.3521511E-02   -0.3903863E-02   -0.3905636E-02   -0.3526570E-02   -0.2803815E-02
 -0.1808178E-02   -0.6369868E-03    0.5950156E-03    0.1767165E-02    0.2764912E-02    0.3490463E-02    0.3872719E-02    0.3874472E-02    0.3495395E-02    0.2772520E-02
  0.1776870E-02    0.6056982E-03    0.6066416E-03    0.1777548E-02    0.2773034E-02    0.3495593E-02    0.3874434E-02    0.3872548E-02    0.3490098E-02    0.2764470E-02
  0.1766809E-02    0.5946510E-03   -0.6373494E-03   -0.1808394E-02   -0.2803972E-02   -0.3526694E-02   -0.3905581E-02   -0.3903730E-02   -0.3521411E-02   -0.2795757E-02
 -0.1797960E-02   -0.6257423E-03    0.1778034E-02    0.5177920E-02    0.8069232E-02    0.1016901E-01    0.1127184E-01    0.1126982E-01    0.1016309E-01    0.8060136E-02
  0.5166699E-02    0.1765866E-02   -0.1809316E-02   -0.5208984E-02   -0.8100411E-02   -0.1020028E-01   -0.1130320E-01   -0.1130134E-01   -0.1019459E-01   -0.8091441E-02
 -0.5197899E-02   -0.1796724E-02    0.2775244E-02    0.8070719E-02    0.1257450E-01    0.1584578E-01    0.1756446E-01    0.1756223E-01    0.1583948E-01    0.1256489E-01
  0.8058831E-02    0.2762410E-02   -0.2806117E-02   -0.8101703E-02   -0.1260566E-01   -0.1587714E-01   -0.1759604E-01   -0.1759393E-01   -0.1587107E-01   -0.1259632E-01
 -0.8090047E-02   -0.2793466E-02    0.3500150E-02    0.1017252E-01    0.1584773E-01    0.1997005E-01    0.2213614E-01    0.2213378E-01    0.1996340E-01    0.1583765E-01
  0.1016020E-01    0.3486555E-02   -0.3530275E-02   -0.1020320E-01   -0.1587898E-01   -0.2000172E-01   -0.2216782E-01   -0.2216584E-01   -0.1999532E-01   -0.1586891E-01
 -0.1019123E-01   -0.3516859E-02    0.3879776E-02    0.1127697E-01    0.1756822E-01    0.2213776E-01    0.2453940E-01    0.2453683E-01    0.2213094E-01    0.1755810E-01
  0.1126487E-01    0.3867298E-02   -0.3910513E-02   -0.1130802E-01   -0.1760035E-01   -0.2216985E-01   -0.2457112E-01   -0.2457007E-01   -0.2216300E-01   -0.1758895E-01
 -0.1129679E-01   -0.3896344E-02    0.6996346E-03    0.7240346E-03    0.7661131E-03    0.8123434E-03    0.8032242E-03    0.7748692E-03    0.7304482E-03    0.6243151E-03
  0.5159162E-03    0.3624553E-03    0.4236610E-03    0.5154595E-03    0.6285184E-03    0.6287326E-03    0.7043180E-03    0.7804280E-03    0.6849381E-03    0.7068709E-03
  0.7724393E-03    0.6726662E-03    0.7083419E-03    0.7262543E-03    0.7621170E-03    0.8012779E-03    0.8027753E-03    0.7772196E-03    0.7305097E-03    0.6418628E-03
  0.5546670E-03    0.5012410E-03    0.4877079E-03    0.5402439E-03    0.6493222E-03    0.6664151E-03    0.7214994E-03    0.7990597E-03    0.7305667E-03    0.7271954E-03
  0.7843012E-03    0.7193699E-03    0.7504322E-03    0.7571177E-03    0.7806526E-03    0.8153175E-03    0.8274895E-03    0.7993994E-03    0.7565301E-03    0.6861246E-03
  0.6076963E-03    0.5829242E-03    0.5665185E-03    0.5913306E-03    0.6893429E-03    0.7241603E-03    0.7565421E-03    0.8303506E-03    0.7923472E-03    0.7575949E-03
  0.8089109E-03    0.7809567E-03    0.7990183E-03    0.8014063E-03    0.8216951E-03    0.8606536E-03    0.8681764E-03    0.8399166E-03    0.8102851E-03    0.7371765E-03
  0.6654296E-03    0.6622858E-03    0.6348541E-03    0.6492790E-03    0.7527600E-03    0.7738107E-03    0.8007225E-03    0.8871874E-03    0.8330456E-03    0.7948240E-03