 TITLE = "NAVIER-STOKES OUTPUT"
 VARIABLES = "X", "Y", "U", "V", "P", "Pex", "Vor"
 ZONE I =   21, J =   21, DATAPACKING = BLOCK, VARLOCATION=(3=CELLCENTERED, 4=CELLCENTERED,5=CELLCENTERED,6=CELLCENTERED, 7=CELLCENTERED)
  0.0000000E+00    0.3141593E+00    0.6283185E+00    0.9424778E+00    0.1256637E+01    0.1570796E+01    0.1884956E+01    0.2199115E+01    0.2513274E+01    0.2827433E+01
  0.3141593E+01    0.3455752E+01    0.3769911E+01    0.4084071E+01    0.4398230E+01    0.4712389E+01    0.5026548E+01    0.5340708E+01    0.5654867E+01    0.5969026E+01
  0.6283185E+01    0.0000000E+00    0.3141593E+00    0.6283185E+00    0.9424778E+00    0.1256637E+01    0.1570796E+01    0.1884956E+01    0.2199115E+01    0.2513274E+01
  0.2827433E+01    0.3141593E+01    0.3455752E+01    0.3769911E+01    0.4084071E+01    0.4398230E+01    0.4712389E+01    0.5026548E+01    0.5340708E+01    0.5654867E+01
  0.5969026E+01    0.6283185E+01    0.0000000E+00    0.3141593E+00    0.6283185E+00    0.9424778E+00    0.1256637E+01    0.1570796E+01    0.1884956E+01    0.2199115E+01
  0.2513274E+01    0.2827433E+01    0.3141593E+01    0.3455752E+01    0.3769911E+01    0.4084071E+01    0.4398230E+01    0.4712389E+01    0.5026548E+01    0.5340708E+01
  0.5654867E+01    0.5969026E+01    0.6283185E+01    0.0000000E+00    0.3141593E+00    0.6283185E+00    0.9424778E+00    0.1256637E+01    0.1570796E+01    0.1884956E+01
  0.2199115E+01    0.2513274E+01    0.2827433E+01    0.3141593E+01    0.3455752E+01    0.3769911E+01    0.4084071E+01    0.4398230E+01    0.4712389E+01    0.5026548E+01
  0.5340708E+01    0.5654867E+01    0.5969026E+01    0.6283185E+01    0.0000000E+00    0.3141593E+00    0.6283185E+00    0.9424778E+00    0.1256637E+01    0.1570796E+01
  0.1884956E+01    0.2199115E+01    0.2513274E+01    0.2827433E+01    0.3141593E+01    0.3455752E+01    0.3769911E+01    0.4084071E+01    0.4398230E+01    0.4712389E+01
  0.5026548E+01    0.5340708E+01    0.5654867E+01    0.5969026E+01    0.6283185E+01    0.0000000E+00    0.3141593E+00    0.6283185E+00    0.9424778E+00    0.1256637E+01
  0.1570796E+01    0.1884956E+01    0.2199115E+01    0.2513274E+01    0.2827433E+01    0.3141593E+01    0.3455752E+01    0.3769911E+01    0.4084071E+01    0.4398230E+01
  0.4712389E+01    0.5026548E+01    0.5340708E+01    0.5654867E+01    0.5969026E+01    0.6283185E+01    0.0000000E+00    0.3141593E+00    0.6283185E+00    0.9424778E+00
  0.1256637E+01    0.1570796E+01    0.1884956E+01    0.2199115E+01    0.2513274E+01    0.2827433E+01    0.3141593E+01    0.3455752E+01    0.3769911E+01    0.4084071E+01
  0.4398230E+01    0.4712389E+01    0.5026548E+01    0.5340708E+01    0.5654867E+01    0.5969026E+01    0.6283185E+01    0.0000000E+00    0.3141593E+00    0.6283185E+00
  0.9424778E+00    0.1256637E+01    0.1570796E+01    0.1884956E+01    0.2199115E+01    0.2513274E+01    0.2827433E+01    0.3141593E+01    0.3455752E+01    0.3769911E+01
  0.4084071E+01    0.4398230E+01    0.4712389E+01    0.5026548E+01    0.5340708E+01    0.5654867E+01    0.5969026E+01    0.6283185E+01    0.0000000E+00    0.3141593E+00
  0.6283185E+00    0.9424778E+00    0.1256637E+01    0.1570796E+01    0.1884956E+01    0.2199115E+01    0.2513274E+01    0.2827433E+01    0.3141593E+01    0.3455752E+01
  0.3769911E+01    0.4084071E+01    0.4398230E+01    0.4712389E+01    0.5026548E+01    0.5340708E+01    0.5654867E+01    0.5969026E+01    0.6283185E+01    0.0000000E+00
  0.3141593E+00    0.6283185E+00    0.9424778E+00    0.1256637E+01    0.1570796E+01    0.1884956E+01    0.2199115E+01    0.2513274E+01    0.2827433E+01    0.3141593E+01
  0.3455752E+01    0.3769911E+01    0.4084071E+01    0.4398230E+01    0.4712389E+01    0.5026548E+01    0.5340708E+01    0.5654867E+01    0.5969026E+01    0.6283185E+01
  0.0000000E+00    0.3141593E+00    0.6283185E+00    0.9424778E+00    0.1256637E+01    0.1570796E+01    0.1884956E+01    0.2199115E+01    0.2513274E+01    0.2827433E+01
  0.3141593E+01    0.3455752E+01    0.3769911E+01    0.4084071E+01    0.4398230E+01    0.4712389E+01    0.5026548E+01    0.5340708E+01    0.5654867E+01    0.5969026E+01
  0.6283185E+01    0.0000000E+00    0.3141593E+00    0.6283185E+00    0.9424778E+00    0.1256637E+01    0.1570796E+01    0.1884956E+01    0.2199115E+01    0.2513274E+01
  0.2827433E+01    0.3141593E+01    0.3455752E+01    0.3769911E+01    0.4084071E+01    0.4398230E+01    0.4712389E+01    0.5026548E+01    0.5340708E+01    0.5654867E+01
  0.5969026E+01    0.6283185E+01    0.0000000E+00    0.3141593E+00    0.6283185E+00    0.9424778E+00    0.1256637E+01    0.1570796E+01    0.1884956E+01    0.2199115E+01
  0.2513274E+01    0.2827433E+01    0.3141593E+01    0.3455752E+01    0.3769911E+01    0.4084071E+01    0.4398230E+01    0.4712389E+01    0.5026548E+01    0.5340708E+01
  0.5654867E+01    0.5969026E+01    0.6283185E+01    0.0000000E+00    0.3141593E+00    0.6283185E+00    0.9424778E+00    0.1256637E+01    0.1570796E+01    0.1884956E+01
  0.2199115E+01    0.2513274E+01    0.2827433E+01    0.3141593E+01    0.3455752E+01    0.3769911E+01    0.4084071E+01    0.4398230E+01    0.4712389E+01    0.5026548E+01
  0.5340708E+01    0.5654867E+01    0.5969026E+01    0.6283185E+01    0.0000000E+00    0.3141593E+00    0.6283185E+00    0.9424778E+00    0.1256637E+01    0.1570796E+01
  0.1884956E+01    0.2199115E+01    0.2513274E+01    0.2827433E+01    0.3141593E+01    0.3455752E+01    0.3769911E+01    0.4084071E+01    0.4398230E+01    0.4712389E+01
  0.5026548E+01    0.5340708E+01    0.5654867E+01    0.5969026E+01    0.6283185E+01    0.0000000E+00    0.3141593E+00    0.6283185E+00    0.9424778E+00    0.1256637E+01
  0.1570796E+01    0.1884956E+01    0.2199115E+01    0.2513274E+01    0.2827433E+01    0.3141593E+01    0.3455752E+01    0.3769911E+01    0.4084071E+01    0.4398230E+01
  0.4712389E+01    0.5026548E+01    0.5340708E+01    0.5654867E+01    0.5969026E+01    0.6283185E+01    0.0000000E+00    0.3141593E+00    0.6283185E+00    0.9424778E+00
  0.1256637E+01    0.1570796E+01    0.1884956E+01    0.2199115E+01    0.2513274E+01    0.2827433E+01    0.3141593E+01    0.3455752E+01    0.3769911E+01    0.4084071E+01
  0.4398230E+01    0.4712389E+01    0.5026548E+01    0.5340708E+01    0.5654867E+01    0.5969026E+01    0.6283185E+01    0.0000000E+00    0.3141593E+00    0.6283185E+00
  0.9424778E+00    0.1256637E+01    0.1570796E+01    0.1884956E+01    0.2199115E+01    0.2513274E+01    0.2827433E+01    0.3141593E+01    0.3455752E+01    0.3769911E+01
  0.4084071E+01    0.4398230E+01    0.4712389E+01    0.5026548E+01    0.5340708E+01    0.5654867E+01    0.5969026E+01    0.6283185E+01    0.0000000E+00    0.3141593E+00
  0.6283185E+00    0.9424778E+00    0.1256637E+01    0.1570796E+01    0.1884956E+01    0.2199115E+01    0.2513274E+01    0.2827433E+01    0.3141593E+01    0.3455752E+01
  0.3769911E+01    0.4084071E+01    0.4398230E+01    0.4712389E+01    0.5026548E+01    0.5340708E+01    0.5654867E+01    0.5969026E+01    0.6283185E+01    0.0000000E+00
  0.3141593E+00    0.6283185E+00    0.9424778E+00    0.1256637E+01    0.1570796E+01    0.1884956E+01    0.2199115E+01    0.2513274E+01    0.2827433E+01    0.3141593E+01
  0.3455752E+01    0.3769911E+01    0.4084071E+01    0.4398230E+01    0.4712389E+01    0.5026548E+01    0.5340708E+01    0.5654867E+01    0.5969026E+01    0.6283185E+01
  0.0000000E+00    0.3141593E+00    0.6283185E+00    0.9424778E+00    0.1256637E+01    0.1570796E+01    0.1884956E+01    0.2199115E+01    0.2513274E+01    0.2827433E+01
  0.3141593E+01    0.3455752E+01    0.3769911E+01    0.4084071E+01    0.4398230E+01    0.4712389E+01    0.5026548E+01    0.5340708E+01    0.5654867E+01    0.5969026E+01
  0.6283185E+01    0.0000000E+00    0.0000000E+00    0.0000000E+00    0.0000000E+00    0.0000000E+00    0.0000000E+00    0.0000000E+00    0.0000000E+00    0.0000000E+00
  0.0000000E+00    0.0000000E+00    0.0000000E+00    0.0000000E+00    0.0000000E+00    0.0000000E+00    0.0000000E+00    0.0000000E+00    0.0000000E+00    0.0000000E+00
  0.0000000E+00    0.0000000E+00    0.3141593E+00    0.3141593E+00    0.3141593E+00    0.3141593E+00    0.3141593E+00    0.3141593E+00    0.3141593E+00    0.3141593E+00
  0.3141593E+00    0.3141593E+00    0.3141593E+00    0.3141593E+00    0.3141593E+00    0.3141593E+00    0.3141593E+00    0.3141593E+00    0.3141593E+00    0.3141593E+00
  0.3141593E+00    0.3141593E+00    0.3141593E+00    0.6283185E+00    0.6283185E+00    0.6283185E+00    0.6283185E+00    0.6283185E+00    0.6283185E+00    0.6283185E+00
  0.6283185E+00    0.6283185E+00    0.6283185E+00    0.6283185E+00    0.6283185E+00    0.6283185E+00    0.6283185E+00    0.6283185E+00    0.6283185E+00    0.6283185E+00
  0.6283185E+00    0.6283185E+00    0.6283185E+00    0.6283185E+00    0.9424778E+00    0.9424778E+00    0.9424778E+00    0.9424778E+00    0.9424778E+00    0.9424778E+00
  0.9424778E+00    0.9424778E+00    0.9424778E+00    0.9424778E+00    0.9424778E+00    0.9424778E+00    0.9424778E+00    0.9424778E+00    0.9424778E+00    0.9424778E+00
  0.9424778E+00    0.9424778E+00    0.9424778E+00    0.9424778E+00    0.9424778E+00    0.1256637E+01    0.1256637E+01    0.1256637E+01    0.1256637E+01    0.1256637E+01
  0.1256637E+01    0.1256637E+01    0.1256637E+01    0.1256637E+01    0.1256637E+01    0.1256637E+01    0.1256637E+01    0.1256637E+01    0.1256637E+01    0.1256637E+01
  0.1256637E+01    0.1256637E+01    0.1256637E+01    0.1256637E+01    0.1256637E+01    0.1256637E+01    0.1570796E+01    0.1570796E+01    0.1570796E+01    0.1570796E+01
  0.1570796E+01    0.1570796E+01    0.1570796E+01    0.1570796E+01    0.1570796E+01    0.1570796E+01    0.1570796E+01    0.1570796E+01    0.1570796E+01    0.1570796E+01
  0.1570796E+01    0.1570796E+01    0.1570796E+01    0.1570796E+01    0.1570796E+01    0.1570796E+01    0.1570796E+01    0.1884956E+01    0.1884956E+01    0.1884956E+01
  0.1884956E+01    0.1884956E+01    0.1884956E+01    0.1884956E+01    0.1884956E+01    0.1884956E+01    0.1884956E+01    0.1884956E+01    0.1884956E+01    0.1884956E+01
  0.1884956E+01    0.1884956E+01    0.1884956E+01    0.1884956E+01    0.1884956E+01    0.1884956E+01    0.1884956E+01    0.1884956E+01    0.2199115E+01    0.2199115E+01
  0.2199115E+01    0.2199115E+01    0.2199115E+01    0.2199115E+01    0.2199115E+01    0.2199115E+01    0.2199115E+01    0.2199115E+01    0.2199115E+01    0.2199115E+01
  0.2199115E+01    0.2199115E+01    0.2199115E+01    0.2199115E+01    0.2199115E+01    0.2199115E+01    0.2199115E+01    0.2199115E+01    0.2199115E+01    0.2513274E+01
  0.2513274E+01    0.2513274E+01    0.2513274E+01    0.2513274E+01    0.2513274E+01    0.2513274E+01    0.2513274E+01    0.2513274E+01    0.2513274E+01    0.2513274E+01
  0.2513274E+01    0.2513274E+01    0.2513274E+01    0.2513274E+01    0.2513274E+01    0.2513274E+01    0.2513274E+01    0.2513274E+01    0.2513274E+01    0.2513274E+01
  0.2827433E+01    0.2827433E+01    0.2827433E+01    0.2827433E+01    0.2827433E+01    0.2827433E+01    0.2827433E+01    0.2827433E+01    0.2827433E+01    0.2827433E+01
  0.2827433E+01    0.2827433E+01    0.2827433E+01    0.2827433E+01    0.2827433E+01    0.2827433E+01    0.2827433E+01    0.2827433E+01    0.2827433E+01    0.2827433E+01
  0.2827433E+01    0.3141593E+01    0.3141593E+01    0.3141593E+01    0.3141593E+01    0.3141593E+01    0.3141593E+01    0.3141593E+01    0.3141593E+01    0.3141593E+01
  0.3141593E+01    0.3141593E+01    0.3141593E+01    0.3141593E+01    0.3141593E+01    0.3141593E+01    0.3141593E+01    0.3141593E+01    0.3141593E+01    0.3141593E+01
  0.3141593E+01    0.3141593E+01    0.3455752E+01    0.3455752E+01    0.3455752E+01    0.3455752E+01    0.3455752E+01    0.3455752E+01    0.3455752E+01    0.3455752E+01
  0.3455752E+01    0.3455752E+01    0.3455752E+01    0.3455752E+01    0.3455752E+01    0.3455752E+01    0.3455752E+01    0.3455752E+01    0.3455752E+01    0.3455752E+01
  0.3455752E+01    0.3455752E+01    0.3455752E+01    0.3769911E+01    0.3769911E+01    0.3769911E+01    0.3769911E+01    0.3769911E+01    0.3769911E+01    0.3769911E+01
  0.3769911E+01    0.3769911E+01    0.3769911E+01    0.3769911E+01    0.3769911E+01    0.3769911E+01    0.3769911E+01    0.3769911E+01    0.3769911E+01    0.3769911E+01
  0.3769911E+01    0.3769911E+01    0.3769911E+01    0.3769911E+01    0.4084071E+01    0.4084071E+01    0.4084071E+01    0.4084071E+01    0.4084071E+01    0.4084071E+01
  0.4084071E+01    0.4084071E+01    0.4084071E+01    0.4084071E+01    0.4084071E+01    0.4084071E+01    0.4084071E+01    0.4084071E+01    0.4084071E+01    0.4084071E+01
  0.4084071E+01    0.4084071E+01    0.4084071E+01    0.4084071E+01    0.4084071E+01    0.4398230E+01    0.4398230E+01    0.4398230E+01    0.4398230E+01    0.4398230E+01
  0.4398230E+01    0.4398230E+01    0.4398230E+01    0.4398230E+01    0.4398230E+01    0.4398230E+01    0.4398230E+01    0.4398230E+01    0.4398230E+01    0.4398230E+01
  0.4398230E+01    0.4398230E+01    0.4398230E+01    0.4398230E+01    0.4398230E+01    0.4398230E+01    0.4712389E+01    0.4712389E+01    0.4712389E+01    0.4712389E+01
  0.4712389E+01    0.4712389E+01    0.4712389E+01    0.4712389E+01    0.4712389E+01    0.4712389E+01    0.4712389E+01    0.4712389E+01    0.4712389E+01    0.4712389E+01
  0.4712389E+01    0.4712389E+01    0.4712389E+01    0.4712389E+01    0.4712389E+01    0.4712389E+01    0.4712389E+01    0.5026548E+01    0.5026548E+01    0.5026548E+01
  0.5026548E+01    0.5026548E+01    0.5026548E+01    0.5026548E+01    0.5026548E+01    0.5026548E+01    0.5026548E+01    0.5026548E+01    0.5026548E+01    0.5026548E+01
  0.5026548E+01    0.5026548E+01    0.5026548E+01    0.5026548E+01    0.5026548E+01    0.5026548E+01    0.5026548E+01    0.5026548E+01    0.5340708E+01    0.5340708E+01
  0.5340708E+01    0.5340708E+01    0.5340708E+01    0.5340708E+01    0.5340708E+01    0.5340708E+01    0.5340708E+01    0.5340708E+01    0.5340708E+01    0.5340708E+01
  0.5340708E+01    0.5340708E+01    0.5340708E+01    0.5340708E+01    0.5340708E+01    0.5340708E+01    0.5340708E+01    0.5340708E+01    0.5340708E+01    0.5654867E+01
  0.5654867E+01    0.5654867E+01    0.5654867E+01    0.5654867E+01    0.5654867E+01    0.5654867E+01    0.5654867E+01    0.5654867E+01    0.5654867E+01    0.5654867E+01
  0.5654867E+01    0.5654867E+01    0.5654867E+01    0.5654867E+01    0.5654867E+01    0.5654867E+01    0.5654867E+01    0.5654867E+01    0.5654867E+01    0.5654867E+01
  0.5969026E+01    0.5969026E+01    0.5969026E+01    0.5969026E+01    0.5969026E+01    0.5969026E+01    0.5969026E+01    0.5969026E+01    0.5969026E+01    0.5969026E+01
  0.5969026E+01    0.5969026E+01    0.5969026E+01    0.5969026E+01    0.5969026E+01    0.5969026E+01    0.5969026E+01    0.5969026E+01    0.5969026E+01    0.5969026E+01
  0.5969026E+01    0.6283185E+01    0.6283185E+01    0.6283185E+01    0.6283185E+01    0.6283185E+01    0.6283185E+01    0.6283185E+01    0.6283185E+01    0.6283185E+01
  0.6283185E+01    0.6283185E+01    0.6283185E+01    0.6283185E+01    0.6283185E+01    0.6283185E+01    0.6283185E+01    0.6283185E+01    0.6283185E+01    0.6283185E+01
  0.6283185E+01    0.6283185E+01   -0.5784254E-02   -0.5218290E-02   -0.4141541E-02   -0.2659454E-02   -0.9169833E-03    0.9151503E-03    0.2657400E-02    0.4139051E-02
  0.5214399E-02    0.5783845E-02    0.5787357E-02    0.5219677E-02    0.4141963E-02    0.2659734E-02    0.9174186E-03   -0.9147942E-03   -0.2657030E-02   -0.4139097E-02
 -0.5216338E-02   -0.5782361E-02   -0.1678345E-01   -0.1514065E-01   -0.1201572E-01   -0.7714626E-02   -0.2658394E-02    0.2657960E-02    0.7713941E-02    0.1201467E-01
  0.1513939E-01    0.1678376E-01    0.1678529E-01    0.1514220E-01    0.1201675E-01    0.7715332E-02    0.2659019E-02   -0.2657514E-02   -0.7713726E-02   -0.1201466E-01
 -0.1513962E-01   -0.1678251E-01   -0.2614004E-01   -0.2358107E-01   -0.1871383E-01   -0.1201476E-01   -0.4139659E-02    0.4140605E-02    0.1201545E-01    0.1871413E-01
  0.2358125E-01    0.2614067E-01    0.2614126E-01    0.2358247E-01    0.1871496E-01    0.1201552E-01    0.4140227E-02   -0.4140236E-02   -0.1201539E-01   -0.1871414E-01
 -0.2358106E-01   -0.2613981E-01   -0.3293774E-01   -0.2971330E-01   -0.2358023E-01   -0.1513894E-01   -0.5215778E-02    0.5217931E-02    0.1514079E-01    0.2358160E-01
  0.2971435E-01    0.3293866E-01    0.3293870E-01    0.2971433E-01    0.2358103E-01    0.1513942E-01    0.5216126E-02   -0.5217765E-02   -0.1514090E-01   -0.2358169E-01
 -0.2971426E-01   -0.3293822E-01   -0.3651147E-01   -0.3293715E-01   -0.2613860E-01   -0.1678136E-01   -0.5781454E-02    0.5784367E-02    0.1678392E-01    0.2614058E-01
  0.3293855E-01    0.3651233E-01    0.3651202E-01    0.3293760E-01    0.2613883E-01    0.1678139E-01    0.5781408E-02   -0.5784537E-02   -0.1678424E-01   -0.2614087E-01
 -0.3293882E-01   -0.3651261E-01   -0.3651174E-01   -0.3293718E-01   -0.2613853E-01   -0.1678127E-01   -0.5781375E-02    0.5784427E-02    0.1678395E-01    0.2614051E-01
  0.3293831E-01    0.3651188E-01    0.3651133E-01    0.3293680E-01    0.2613808E-01    0.1678069E-01    0.5780793E-02   -0.5784994E-02   -0.1678461E-01   -0.2614115E-01
 -0.3293892E-01   -0.3651259E-01   -0.3293794E-01   -0.2971325E-01   -0.2358002E-01   -0.1513868E-01   -0.5215530E-02    0.5218118E-02    0.1514086E-01    0.2358144E-01
  0.2971373E-01    0.3293732E-01    0.3293669E-01    0.2971203E-01    0.2357880E-01    0.1513742E-01    0.5214399E-02   -0.5219177E-02   -0.1514198E-01   -0.2358246E-01
 -0.2971470E-01   -0.3293832E-01   -0.2614015E-01   -0.2358093E-01   -0.1871347E-01   -0.1201433E-01   -0.4139256E-02    0.4140883E-02    0.1201554E-01    0.1871395E-01
  0.2358043E-01    0.2613858E-01    0.2613802E-01    0.2357885E-01    0.1871149E-01    0.1201247E-01    0.4137573E-02   -0.4142472E-02   -0.1201707E-01   -0.1871536E-01
 -0.2358184E-01   -0.2614007E-01   -0.1678398E-01   -0.1514047E-01   -0.1201519E-01   -0.7713994E-02   -0.2657906E-02    0.2658223E-02    0.7713991E-02    0.1201449E-01
  0.1513885E-01    0.1678120E-01    0.1678073E-01    0.1513761E-01    0.1201263E-01    0.7711612E-02    0.2655715E-02   -0.2660215E-02   -0.7715898E-02   -0.1201630E-01
 -0.1514051E-01   -0.1678283E-01   -0.5784399E-02   -0.5217862E-02   -0.4140775E-02   -0.2658626E-02   -0.9164387E-03    0.9153132E-03    0.2657240E-02    0.4138900E-02
  0.5215348E-02    0.5781085E-02    0.5780795E-02    0.5214629E-02    0.4137826E-02    0.2655852E-02    0.9139370E-03   -0.9176302E-03   -0.2659507E-02   -0.4140956E-02
 -0.5217174E-02   -0.5782652E-02    0.5781480E-02    0.5215551E-02    0.4138938E-02    0.2656958E-02    0.9147056E-03   -0.9172840E-03   -0.2659680E-02   -0.4141860E-02
 -0.5218754E-02   -0.5784966E-02   -0.5784997E-02   -0.5218875E-02   -0.4142052E-02   -0.2659840E-02   -0.9173778E-03    0.9147199E-03    0.2657254E-02    0.4139609E-02
  0.5216616E-02    0.5782986E-02    0.1678093E-01    0.1513828E-01    0.1201345E-01    0.7712415E-02    0.2656209E-02   -0.2660160E-02   -0.7716291E-02   -0.1201730E-01
 -0.1514208E-01   -0.1678475E-01   -0.1678461E-01   -0.1514156E-01   -0.1201644E-01   -0.7715261E-02   -0.2658951E-02    0.2657587E-02    0.7713794E-02    0.1201485E-01
  0.1513980E-01    0.1678254E-01    0.2613831E-01    0.2357925E-01    0.1871196E-01    0.1201281E-01    0.4137608E-02   -0.4142715E-02   -0.1201772E-01   -0.1871650E-01
 -0.2358322E-01   -0.2614165E-01   -0.2614130E-01   -0.2358207E-01   -0.1871468E-01   -0.1201552E-01   -0.4140174E-02    0.4140217E-02    0.1201518E-01    0.1871410E-01
  0.2358100E-01    0.2613966E-01    0.3293704E-01    0.2971204E-01    0.2357867E-01    0.1513719E-01    0.5213896E-02   -0.5219903E-02   -0.1514288E-01   -0.2358363E-01
 -0.2971600E-01   -0.3293970E-01   -0.3293907E-01   -0.2971429E-01   -0.2358103E-01   -0.1513952E-01   -0.5216211E-02    0.5217526E-02    0.1514056E-01    0.2358137E-01
  0.2971366E-01    0.3293737E-01    0.3651059E-01    0.3293597E-01    0.2613712E-01    0.1677969E-01    0.5779630E-02   -0.5786257E-02   -0.1678581E-01   -0.2614240E-01
 -0.3294007E-01   -0.3651337E-01   -0.3651266E-01   -0.3293794E-01   -0.2613904E-01   -0.1678167E-01   -0.5781699E-02    0.5784248E-02    0.1678378E-01    0.2614027E-01
  0.3293796E-01    0.3651107E-01    0.3651078E-01    0.3293585E-01    0.2613693E-01    0.1677947E-01    0.5779452E-02   -0.5786320E-02   -0.1678581E-01   -0.2614227E-01
 -0.3293975E-01   -0.3651301E-01   -0.3651224E-01   -0.3293735E-01   -0.2613851E-01   -0.1678117E-01   -0.5781094E-02    0.5784675E-02    0.1678405E-01    0.2614063E-01
  0.3293818E-01    0.3651153E-01    0.3293678E-01    0.2971154E-01    0.2357808E-01    0.1513661E-01    0.5213453E-02   -0.5220101E-02   -0.1514276E-01   -0.2358316E-01
 -0.2971518E-01   -0.3293856E-01   -0.3293767E-01   -0.2971273E-01   -0.2357941E-01   -0.1513790E-01   -0.5214708E-02    0.5218803E-02    0.1514160E-01    0.2358206E-01
  0.2971392E-01    0.3293723E-01    0.2613774E-01    0.2357855E-01    0.1871109E-01    0.1201199E-01    0.4137002E-02   -0.4142989E-02   -0.1201746E-01   -0.1871568E-01
 -0.2358194E-01   -0.2613979E-01   -0.2613902E-01   -0.2357968E-01   -0.1871211E-01   -0.1201297E-01   -0.4137950E-02    0.4142276E-02    0.1201688E-01    0.1871510E-01
  0.2358149E-01    0.2613920E-01    0.1678102E-01    0.1513769E-01    0.1201251E-01    0.7711430E-02    0.2655473E-02   -0.2660390E-02   -0.7715945E-02   -0.1201633E-01
 -0.1514044E-01   -0.1678241E-01   -0.1678164E-01   -0.1513826E-01   -0.1201322E-01   -0.7712217E-02   -0.2655942E-02    0.2660130E-02    0.7715743E-02    0.1201648E-01
  0.1514075E-01    0.1678308E-01    0.5781935E-02    0.5215024E-02    0.4138042E-02    0.2655971E-02    0.9139619E-03   -0.9174796E-03   -0.2659369E-02   -0.4141089E-02
 -0.5217512E-02   -0.5782289E-02   -0.5780908E-02   -0.5214690E-02   -0.4138276E-02   -0.2656344E-02   -0.9139854E-03    0.9174890E-03    0.2659458E-02    0.4141420E-02
  0.5217423E-02    0.5782904E-02    0.5775976E-02    0.1677495E-01    0.2613016E-01    0.3292602E-01    0.3649712E-01    0.3649360E-01    0.3291644E-01    0.2611603E-01
  0.1675822E-01    0.5767808E-02   -0.5807561E-02   -0.1680771E-01   -0.2616241E-01   -0.3295735E-01   -0.3652862E-01   -0.3652498E-01   -0.3294805E-01   -0.2614852E-01
 -0.1678993E-01   -0.5789037E-02    0.5210036E-02    0.1513210E-01    0.2357135E-01    0.2970162E-01    0.3292278E-01    0.3291946E-01    0.2969233E-01    0.2355772E-01
  0.1511645E-01    0.5195676E-02   -0.5240525E-02   -0.1516384E-01   -0.2360319E-01   -0.2973304E-01   -0.3295409E-01   -0.3295085E-01   -0.2972394E-01   -0.2358935E-01
 -0.1514698E-01   -0.5223336E-02    0.4133234E-02    0.1200716E-01    0.1870418E-01    0.2356867E-01    0.2612441E-01    0.2612126E-01    0.2355975E-01    0.1869091E-01
  0.1199148E-01    0.4116858E-02   -0.4163877E-02   -0.1203848E-01   -0.1873560E-01   -0.2359986E-01   -0.2615550E-01   -0.2615244E-01   -0.2359114E-01   -0.1872226E-01
 -0.1202217E-01   -0.4146714E-02    0.2650966E-02    0.7705980E-02    0.1200508E-01    0.1512742E-01    0.1676734E-01    0.1676438E-01    0.1511892E-01    0.1199221E-01
  0.7690381E-02    0.2634177E-02   -0.2681944E-02   -0.7737105E-02   -0.1203619E-01   -0.1515837E-01   -0.1679821E-01   -0.1679538E-01   -0.1515015E-01   -0.1202348E-01
 -0.7721450E-02   -0.2665023E-02    0.9085219E-03    0.2649622E-02    0.4129793E-02    0.5204141E-02    0.5767491E-02    0.5764699E-02    0.5196118E-02    0.4117504E-02
  0.2634431E-02    0.8919448E-03   -0.9395286E-03   -0.2680608E-02   -0.4160705E-02   -0.5234905E-02   -0.5798233E-02   -0.5795611E-02   -0.5227225E-02   -0.4148768E-02
 -0.2665742E-02   -0.9231492E-03   -0.9236996E-03   -0.2666979E-02   -0.4150751E-02   -0.5229750E-02   -0.5798392E-02   -0.5800988E-02   -0.5237244E-02   -0.4162328E-02
 -0.2681423E-02   -0.9395265E-03    0.8927641E-03    0.2636149E-02    0.4120043E-02    0.5199127E-02    0.5767725E-02    0.5770184E-02    0.5206220E-02    0.4131081E-02
  0.2650135E-02    0.9083462E-03   -0.2666454E-02   -0.7723496E-02   -0.1202608E-01   -0.1515302E-01   -0.1679821E-01   -0.1680058E-01   -0.1515994E-01   -0.1203683E-01
 -0.7736930E-02   -0.2681200E-02    0.2635488E-02    0.7692725E-02    0.1199541E-01    0.1512237E-01    0.1676754E-01    0.1676975E-01    0.1512887E-01    0.1200561E-01
  0.7705642E-02    0.2649910E-02   -0.4148980E-02   -0.1202495E-01   -0.1872536E-01   -0.2359431E-01   -0.2615519E-01   -0.2615738E-01   -0.2360063E-01   -0.1873517E-01
 -0.1203731E-01   -0.4162639E-02    0.4118041E-02    0.1199409E-01    0.1869454E-01    0.2356355E-01    0.2612440E-01    0.2612641E-01    0.2356951E-01    0.1870392E-01
  0.1200595E-01    0.4131335E-02   -0.5226331E-02   -0.1515027E-01   -0.2359270E-01   -0.2972722E-01   -0.3295339E-01   -0.3295538E-01   -0.2973299E-01   -0.2360168E-01
 -0.1516157E-01   -0.5238809E-02    0.5195241E-02    0.1511924E-01    0.2356178E-01    0.2969635E-01    0.3292246E-01    0.3292437E-01    0.2970183E-01    0.2357035E-01
  0.1513023E-01    0.5207578E-02   -0.5793101E-02   -0.1679358E-01   -0.2615174E-01   -0.3295155E-01   -0.3652739E-01   -0.3652921E-01   -0.3295689E-01   -0.2616004E-01
 -0.1680395E-01   -0.5804524E-02    0.5761597E-02    0.1676227E-01    0.2612055E-01    0.3292042E-01    0.3649630E-01    0.3649804E-01    0.3292554E-01    0.2612860E-01
  0.1677245E-01    0.5772967E-02   -0.5793466E-02   -0.1679390E-01   -0.2615195E-01   -0.3295162E-01   -0.3652731E-01   -0.3652907E-01   -0.3295668E-01   -0.2615978E-01
 -0.1680375E-01   -0.5804372E-02    0.5761718E-02    0.1676224E-01    0.2612042E-01    0.3292026E-01    0.3649601E-01    0.3649767E-01    0.3292521E-01    0.2612817E-01
  0.1677195E-01    0.5772523E-02   -0.5227535E-02   -0.1515114E-01   -0.2359316E-01   -0.2972727E-01   -0.3295310E-01   -0.3295484E-01   -0.2973228E-01   -0.2360092E-01
 -0.1516087E-01   -0.5238259E-02    0.5195556E-02    0.1511927E-01    0.2356153E-01    0.2969582E-01    0.3292168E-01    0.3292343E-01    0.2970076E-01    0.2356917E-01
  0.1512902E-01    0.5206393E-02   -0.4150817E-02   -0.1202620E-01   -0.1872596E-01   -0.2359432E-01   -0.2615472E-01   -0.2615648E-01   -0.2359951E-01   -0.1873402E-01
 -0.1203621E-01   -0.4161803E-02    0.4118471E-02    0.1199415E-01    0.1869416E-01    0.2356268E-01    0.2612324E-01    0.2612500E-01    0.2356783E-01    0.1870221E-01
  0.1200422E-01    0.4129598E-02   -0.2668264E-02   -0.7724826E-02   -0.1202678E-01   -0.1515304E-01   -0.1679760E-01   -0.1679954E-01   -0.1515863E-01   -0.1203543E-01
 -0.7735721E-02   -0.2680335E-02    0.2635981E-02    0.7692681E-02    0.1199481E-01    0.1512135E-01    0.1676603E-01    0.1676790E-01    0.1512694E-01    0.1200354E-01
  0.7703492E-02    0.2647953E-02   -0.9252459E-03   -0.2668027E-02   -0.4151188E-02   -0.5229537E-02   -0.5797591E-02   -0.5799747E-02   -0.5235741E-02   -0.4160846E-02
 -0.2680223E-02   -0.9387000E-03    0.8931362E-03    0.2636009E-02    0.4119423E-02    0.5197958E-02    0.5766056E-02    0.5768265E-02    0.5204124E-02    0.4128917E-02
  0.2648165E-02    0.9066015E-03    0.9073041E-03    0.2648921E-02    0.4129634E-02    0.5204516E-02    0.5768355E-02    0.5765985E-02    0.5197569E-02    0.4118787E-02
  0.2635340E-02    0.8923356E-03   -0.9395468E-03   -0.2680869E-02   -0.4161380E-02   -0.5236144E-02   -0.5799807E-02   -0.5797464E-02   -0.5229293E-02   -0.4150634E-02
 -0.2667365E-02   -0.9245996E-03    0.2650492E-02    0.7705694E-02    0.1200508E-01    0.1512777E-01    0.1676812E-01    0.1676546E-01    0.1512005E-01    0.1199307E-01
  0.7690523E-02    0.2633603E-02   -0.2682518E-02   -0.7737654E-02   -0.1203695E-01   -0.1515941E-01   -0.1679967E-01   -0.1679713E-01   -0.1515178E-01   -0.1202497E-01
 -0.7722724E-02   -0.2665899E-02    0.4133462E-02    0.1200742E-01    0.1870450E-01    0.2356915E-01    0.2612511E-01    0.2612216E-01    0.2356065E-01    0.1869127E-01
  0.1199068E-01    0.4114845E-02   -0.4165262E-02   -0.1203925E-01   -0.1873615E-01   -0.2360072E-01   -0.2615673E-01   -0.2615373E-01   -0.2359239E-01   -0.1872327E-01
 -0.1202262E-01   -0.4146791E-02    0.5210638E-02    0.1513271E-01    0.2357183E-01    0.2970201E-01    0.3292312E-01    0.3291998E-01    0.2969285E-01    0.2355757E-01
  0.1511477E-01    0.5190581E-02   -0.5242719E-02   -0.1516447E-01   -0.2360344E-01   -0.2973378E-01   -0.3295489E-01   -0.3295169E-01   -0.2972493E-01   -0.2358961E-01
 -0.1514669E-01   -0.5223096E-02    0.5777464E-02    0.1677586E-01    0.2613062E-01    0.3292611E-01    0.3649678E-01    0.3649350E-01    0.3291658E-01    0.2611581E-01
  0.1675702E-01    0.5754893E-02   -0.5809199E-02   -0.1680751E-01   -0.2616207E-01   -0.3295806E-01   -0.3652908E-01   -0.3652532E-01   -0.3294885E-01   -0.2614813E-01
 -0.1678879E-01   -0.5788797E-02   -0.2898379E-03   -0.2426770E-03   -0.1711388E-03   -0.1431266E-03   -0.5469311E-04    0.6928289E-04    0.9594184E-04    0.1305230E-03
  0.1241504E-03   -0.3647282E-05   -0.4060405E-04   -0.3489869E-04   -0.1640162E-03   -0.1143270E-03    0.3511367E-04   -0.5561287E-04   -0.1403697E-04    0.8443784E-05
 -0.1938682E-03   -0.2611868E-03   -0.2340958E-03   -0.2222359E-03   -0.2031369E-03   -0.1912387E-03   -0.1307969E-03   -0.4207227E-04    0.2239789E-05    0.5503678E-04
  0.4832880E-04   -0.2910728E-04   -0.6115343E-04   -0.9530775E-04   -0.2009697E-03   -0.1800284E-03   -0.1047299E-03   -0.1363869E-03   -0.1182704E-03   -0.1675247E-03
 -0.2476602E-03   -0.1729098E-03   -0.1590336E-03   -0.1953897E-03   -0.1877260E-03   -0.1786159E-03   -0.1594725E-03   -0.6505782E-04   -0.1860616E-04    0.8450839E-05
  0.3951892E-04   -0.2307664E-04   -0.1022102E-03   -0.1140805E-03   -0.2022876E-03   -0.2562706E-03   -0.1619146E-03   -0.1381733E-03   -0.2388528E-03   -0.2405750E-03
 -0.2138094E-03   -0.1054155E-03   -0.1444809E-03   -0.1939379E-03   -0.1886327E-03   -0.2039165E-03   -0.1672709E-03   -0.6017399E-04   -0.4582756E-04    0.8612268E-05
  0.5936572E-04   -0.4895259E-04   -0.1038862E-03   -0.9834663E-04   -0.2402809E-03   -0.2637691E-03   -0.1373238E-03   -0.1672686E-03   -0.2639548E-03   -0.1716763E-03