 TITLE = "NAVIER-STOKES OUTPUT"
 VARIABLES = "X", "Y", "U", "V", "P", "Pex", "Vor"
 ZONE I =   21, J =   21, DATAPACKING = BLOCK, VARLOCATION=(3=CELLCENTERED, 4=CELLCENTERED,5=CELLCENTERED,6=CELLCENTERED, 7=CELLCENTERED)
  0.0000000E+00    0.3141593E+00    0.6283185E+00    0.9424778E+00    0.1256637E+01    0.1570796E+01    0.1884956E+01    0.2199115E+01    0.2513274E+01    0.2827433E+01
  0.3141593E+01    0.3455752E+01    0.3769911E+01    0.4084071E+01    0.4398230E+01    0.4712389E+01    0.5026548E+01    0.5340708E+01    0.5654867E+01    0.5969026E+01
  0.6283185E+01    0.0000000E+00    0.3141593E+00    0.6283185E+00    0.9424778E+00    0.1256637E+01    0.1570796E+01    0.1884956E+01    0.2199115E+01    0.2513274E+01
  0.2827433E+01    0.3141593E+01    0.3455752E+01    0.3769911E+01    0.4084071E+01    0.4398230E+01    0.4712389E+01    0.5026548E+01    0.5340708E+01    0.5654867E+01
  0.5969026E+01    0.6283185E+01    0.0000000E+00    0.3141593E+00    0.6283185E+00    0.9424778E+00    0.1256637E+01    0.1570796E+01    0.1884956E+01    0.2199115E+01
  0.2513274E+01    0.2827433E+01    0.3141593E+01    0.3455752E+01    0.3769911E+01    0.4084071E+01    0.4398230E+01    0.4712389E+01    0.5026548E+01    0.5340708E+01
  0.5654867E+01    0.5969026E+01    0.6283185E+01    0.0000000E+00    0.3141593E+00    0.6283185E+00    0.9424778E+00    0.1256637E+01    0.1570796E+01    0.1884956E+01
  0.2199115E+01    0.2513274E+01    0.2827433E+01    0.3141593E+01    0.3455752E+01    0.3769911E+01    0.4084071E+01    0.4398230E+01    0.4712389E+01    0.5026548E+01
  0.5340708E+01    0.5654867E+01    0.5969026E+01    0.6283185E+01    0.0000000E+00    0.3141593E+00    0.6283185E+00    0.9424778E+00    0.1256637E+01    0.1570796E+01
  0.1884956E+01    0.2199115E+01    0.2513274E+01    0.2827433E+01    0.3141593E+01    0.3455752E+01    0.3769911E+01    0.4084071E+01    0.4398230E+01    0.4712389E+01
  0.5026548E+01    0.5340708E+01    0.5654867E+01    0.5969026E+01    0.6283185E+01    0.0000000E+00    0.3141593E+00    0.6283185E+00    0.9424778E+00    0.1256637E+01
  0.1570796E+01    0.1884956E+01    0.2199115E+01    0.2513274E+01    0.2827433E+01    0.3141593E+01    0.3455752E+01    0.3769911E+01    0.4084071E+01    0.4398230E+01
  0.4712389E+01    0.5026548E+01    0.5340708E+01    0.5654867E+01    0.5969026E+01    0.6283185E+01    0.0000000E+00    0.3141593E+00    0.6283185E+00    0.9424778E+00
  0.1256637E+01    0.1570796E+01    0.1884956E+01    0.2199115E+01    0.2513274E+01    0.2827433E+01    0.3141593E+01    0.3455752E+01    0.3769911E+01    0.4084071E+01
  0.4398230E+01    0.4712389E+01    0.5026548E+01    0.5340708E+01    0.5654867E+01    0.5969026E+01    0.6283185E+01    0.0000000E+00    0.3141593E+00    0.6283185E+00
  0.9424778E+00    0.1256637E+01    0.1570796E+01    0.1884956E+01    0.2199115E+01    0.2513274E+01    0.2827433E+01    0.3141593E+01    0.3455752E+01    0.3769911E+01
  0.4084071E+01    0.4398230E+01    0.4712389E+01    0.5026548E+01    0.5340708E+01    0.5654867E+01    0.5969026E+01    0.6283185E+01    0.0000000E+00    0.3141593E+00
  0.6283185E+00    0.9424778E+00    0.1256637E+01    0.1570796E+01    0.1884956E+01    0.2199115E+01    0.2513274E+01    0.2827433E+01    0.3141593E+01    0.3455752E+01
  0.3769911E+01    0.4084071E+01    0.4398230E+01    0.4712389E+01    0.5026548E+01    0.5340708E+01    0.5654867E+01    0.5969026E+01    0.6283185E+01    0.0000000E+00
  0.3141593E+00    0.6283185E+00    0.9424778E+00    0.1256637E+01    0.1570796E+01    0.1884956E+01    0.2199115E+01    0.2513274E+01    0.2827433E+01    0.3141593E+01
  0.3455752E+01    0.3769911E+01    0.4084071E+01    0.4398230E+01    0.4712389E+01    0.5026548E+01    0.5340708E+01    0.5654867E+01    0.5969026E+01    0.6283185E+01
  0.0000000E+00    0.3141593E+00    0.6283185E+00    0.9424778E+00    0.1256637E+01    0.1570796E+01    0.1884956E+01    0.2199115E+01    0.2513274E+01    0.2827433E+01
  0.3141593E+01    0.3455752E+01    0.3769911E+01    0.4084071E+01    0.4398230E+01    0.4712389E+01    0.5026548E+01    0.5340708E+01    0.5654867E+01    0.5969026E+01
  0.6283185E+01    0.0000000E+00    0.3141593E+00    0.6283185E+00    0.9424778E+00    0.1256637E+01    0.1570796E+01    0.1884956E+01    0.2199115E+01    0.2513274E+01
  0.2827433E+01    0.3141593E+01    0.3455752E+01    0.3769911E+01    0.4084071E+01    0.4398230E+01    0.4712389E+01    0.5026548E+01    0.5340708E+01    0.5654867E+01
  0.5969026E+01    0.6283185E+01    0.0000000E+00    0.3141593E+00    0.6283185E+00    0.9424778E+00    0.1256637E+01    0.1570796E+01    0.1884956E+01    0.2199115E+01
  0.2513274E+01    0.2827433E+01    0.3141593E+01    0.3455752E+01    0.3769911E+01    0.4084071E+01    0.4398230E+01    0.4712389E+01    0.5026548E+01    0.5340708E+01
  0.5654867E+01    0.5969026E+01    0.6283185E+01    0.0000000E+00    0.3141593E+00    0.6283185E+00    0.9424778E+00    0.1256637E+01    0.1570796E+01    0.1884956E+01
  0.2199115E+01    0.2513274E+01    0.2827433E+01    0.3141593E+01    0.3455752E+01    0.3769911E+01    0.4084071E+01    0.4398230E+01    0.4712389E+01    0.5026548E+01
  0.5340708E+01    0.5654867E+01    0.5969026E+01    0.6283185E+01    0.0000000E+00    0.3141593E+00    0.6283185E+00    0.9424778E+00    0.1256637E+01    0.1570796E+01
  0.1884956E+01    0.2199115E+01    0.2513274E+01    0.2827433E+01    0.3141593E+01    0.3455752E+01    0.3769911E+01    0.4084071E+01    0.4398230E+01    0.4712389E+01
  0.5026548E+01    0.5340708E+01    0.5654867E+01    0.5969026E+01    0.6283185E+01    0.0000000E+00    0.3141593E+00    0.6283185E+00    0.9424778E+00    0.1256637E+01
  0.1570796E+01    0.1884956E+01    0.2199115E+01    0.2513274E+01    0.2827433E+01    0.3141593E+01    0.3455752E+01    0.3769911E+01    0.4084071E+01    0.4398230E+01
  0.4712389E+01    0.5026548E+01    0.5340708E+01    0.5654867E+01    0.5969026E+01    0.6283185E+01    0.0000000E+00    0.3141593E+00    0.6283185E+00    0.9424778E+00
  0.1256637E+01    0.1570796E+01    0.1884956E+01    0.2199115E+01    0.2513274E+01    0.2827433E+01    0.3141593E+01    0.3455752E+01    0.3769911E+01    0.4084071E+01
  0.4398230E+01    0.4712389E+01    0.5026548E+01    0.5340708E+01    0.5654867E+01    0.5969026E+01    0.6283185E+01    0.0000000E+00    0.3141593E+00    0.6283185E+00
  0.9424778E+00    0.1256637E+01    0.1570796E+01    0.1884956E+01    0.2199115E+01    0.2513274E+01    0.2827433E+01    0.3141593E+01    0.3455752E+01    0.3769911E+01
  0.4084071E+01    0.4398230E+01    0.4712389E+01    0.5026548E+01    0.5340708E+01    0.5654867E+01    0.5969026E+01    0.6283185E+01    0.0000000E+00    0.3141593E+00
  0.6283185E+00    0.9424778E+00    0.1256637E+01    0.1570796E+01    0.1884956E+01    0.2199115E+01    0.2513274E+01    0.2827433E+01    0.3141593E+01    0.3455752E+01
  0.3769911E+01    0.4084071E+01    0.4398230E+01    0.4712389E+01    0.5026548E+01    0.5340708E+01    0.5654867E+01    0.5969026E+01    0.6283185E+01    0.0000000E+00
  0.3141593E+00    0.6283185E+00    0.9424778E+00    0.1256637E+01    0.1570796E+01    0.1884956E+01    0.2199115E+01    0.2513274E+01    0.2827433E+01    0.3141593E+01
  0.3455752E+01    0.3769911E+01    0.4084071E+01    0.4398230E+01    0.4712389E+01    0.5026548E+01    0.5340708E+01    0.5654867E+01    0.5969026E+01    0.6283185E+01
  0.0000000E+00    0.3141593E+00    0.6283185E+00    0.9424778E+00    0.1256637E+01    0.1570796E+01    0.1884956E+01    0.2199115E+01    0.2513274E+01    0.2827433E+01
  0.3141593E+01    0.3455752E+01    0.3769911E+01    0.4084071E+01    0.4398230E+01    0.4712389E+01    0.5026548E+01    0.5340708E+01    0.5654867E+01    0.5969026E+01
  0.6283185E+01    0.0000000E+00    0.0000000E+00    0.0000000E+00    0.0000000E+00    0.0000000E+00    0.0000000E+00    0.0000000E+00    0.0000000E+00    0.0000000E+00
  0.0000000E+00    0.0000000E+00    0.0000000E+00    0.0000000E+00    0.0000000E+00    0.0000000E+00    0.0000000E+00    0.0000000E+00    0.0000000E+00    0.0000000E+00
  0.0000000E+00    0.0000000E+00    0.3141593E+00    0.3141593E+00    0.3141593E+00    0.3141593E+00    0.3141593E+00    0.3141593E+00    0.3141593E+00    0.3141593E+00
  0.3141593E+00    0.3141593E+00    0.3141593E+00    0.3141593E+00    0.3141593E+00    0.3141593E+00    0.3141593E+00    0.3141593E+00    0.3141593E+00    0.3141593E+00
  0.3141593E+00    0.3141593E+00    0.3141593E+00    0.6283185E+00    0.6283185E+00    0.6283185E+00    0.6283185E+00    0.6283185E+00    0.6283185E+00    0.6283185E+00
  0.6283185E+00    0.6283185E+00    0.6283185E+00    0.6283185E+00    0.6283185E+00    0.6283185E+00    0.6283185E+00    0.6283185E+00    0.6283185E+00    0.6283185E+00
  0.6283185E+00    0.6283185E+00    0.6283185E+00    0.6283185E+00    0.9424778E+00    0.9424778E+00    0.9424778E+00    0.9424778E+00    0.9424778E+00    0.9424778E+00
  0.9424778E+00    0.9424778E+00    0.9424778E+00    0.9424778E+00    0.9424778E+00    0.9424778E+00    0.9424778E+00    0.9424778E+00    0.9424778E+00    0.9424778E+00
  0.9424778E+00    0.9424778E+00    0.9424778E+00    0.9424778E+00    0.9424778E+00    0.1256637E+01    0.1256637E+01    0.1256637E+01    0.1256637E+01    0.1256637E+01
  0.1256637E+01    0.1256637E+01    0.1256637E+01    0.1256637E+01    0.1256637E+01    0.1256637E+01    0.1256637E+01    0.1256637E+01    0.1256637E+01    0.1256637E+01
  0.1256637E+01    0.1256637E+01    0.1256637E+01    0.1256637E+01    0.1256637E+01    0.1256637E+01    0.1570796E+01    0.1570796E+01    0.1570796E+01    0.1570796E+01
  0.1570796E+01    0.1570796E+01    0.1570796E+01    0.1570796E+01    0.1570796E+01    0.1570796E+01    0.1570796E+01    0.1570796E+01    0.1570796E+01    0.1570796E+01
  0.1570796E+01    0.1570796E+01    0.1570796E+01    0.1570796E+01    0.1570796E+01    0.1570796E+01    0.1570796E+01    0.1884956E+01    0.1884956E+01    0.1884956E+01
  0.1884956E+01    0.1884956E+01    0.1884956E+01    0.1884956E+01    0.1884956E+01    0.1884956E+01    0.1884956E+01    0.1884956E+01    0.1884956E+01    0.1884956E+01
  0.1884956E+01    0.1884956E+01    0.1884956E+01    0.1884956E+01    0.1884956E+01    0.1884956E+01    0.1884956E+01    0.1884956E+01    0.2199115E+01    0.2199115E+01
  0.2199115E+01    0.2199115E+01    0.2199115E+01    0.2199115E+01    0.2199115E+01    0.2199115E+01    0.2199115E+01    0.2199115E+01    0.2199115E+01    0.2199115E+01
  0.2199115E+01    0.2199115E+01    0.2199115E+01    0.2199115E+01    0.2199115E+01    0.2199115E+01    0.2199115E+01    0.2199115E+01    0.2199115E+01    0.2513274E+01
  0.2513274E+01    0.2513274E+01    0.2513274E+01    0.2513274E+01    0.2513274E+01    0.2513274E+01    0.2513274E+01    0.2513274E+01    0.2513274E+01    0.2513274E+01
  0.2513274E+01    0.2513274E+01    0.2513274E+01    0.2513274E+01    0.2513274E+01    0.2513274E+01    0.2513274E+01    0.2513274E+01    0.2513274E+01    0.2513274E+01
  0.2827433E+01    0.2827433E+01    0.2827433E+01    0.2827433E+01    0.2827433E+01    0.2827433E+01    0.2827433E+01    0.2827433E+01    0.2827433E+01    0.2827433E+01
  0.2827433E+01    0.2827433E+01    0.2827433E+01    0.2827433E+01    0.2827433E+01    0.2827433E+01    0.2827433E+01    0.2827433E+01    0.2827433E+01    0.2827433E+01
  0.2827433E+01    0.3141593E+01    0.3141593E+01    0.3141593E+01    0.3141593E+01    0.3141593E+01    0.3141593E+01    0.3141593E+01    0.3141593E+01    0.3141593E+01
  0.3141593E+01    0.3141593E+01    0.3141593E+01    0.3141593E+01    0.3141593E+01    0.3141593E+01    0.3141593E+01    0.3141593E+01    0.3141593E+01    0.3141593E+01
  0.3141593E+01    0.3141593E+01    0.3455752E+01    0.3455752E+01    0.3455752E+01    0.3455752E+01    0.3455752E+01    0.3455752E+01    0.3455752E+01    0.3455752E+01
  0.3455752E+01    0.3455752E+01    0.3455752E+01    0.3455752E+01    0.3455752E+01    0.3455752E+01    0.3455752E+01    0.3455752E+01    0.3455752E+01    0.3455752E+01
  0.3455752E+01    0.3455752E+01    0.3455752E+01    0.3769911E+01    0.3769911E+01    0.3769911E+01    0.3769911E+01    0.3769911E+01    0.3769911E+01    0.3769911E+01
  0.3769911E+01    0.3769911E+01    0.3769911E+01    0.3769911E+01    0.3769911E+01    0.3769911E+01    0.3769911E+01    0.3769911E+01    0.3769911E+01    0.3769911E+01
  0.3769911E+01    0.3769911E+01    0.3769911E+01    0.3769911E+01    0.4084071E+01    0.4084071E+01    0.4084071E+01    0.4084071E+01    0.4084071E+01    0.4084071E+01
  0.4084071E+01    0.4084071E+01    0.4084071E+01    0.4084071E+01    0.4084071E+01    0.4084071E+01    0.4084071E+01    0.4084071E+01    0.4084071E+01    0.4084071E+01
  0.4084071E+01    0.4084071E+01    0.4084071E+01    0.4084071E+01    0.4084071E+01    0.4398230E+01    0.4398230E+01    0.4398230E+01    0.4398230E+01    0.4398230E+01
  0.4398230E+01    0.4398230E+01    0.4398230E+01    0.4398230E+01    0.4398230E+01    0.4398230E+01    0.4398230E+01    0.4398230E+01    0.4398230E+01    0.4398230E+01
  0.4398230E+01    0.4398230E+01    0.4398230E+01    0.4398230E+01    0.4398230E+01    0.4398230E+01    0.4712389E+01    0.4712389E+01    0.4712389E+01    0.4712389E+01
  0.4712389E+01    0.4712389E+01    0.4712389E+01    0.4712389E+01    0.4712389E+01    0.4712389E+01    0.4712389E+01    0.4712389E+01    0.4712389E+01    0.4712389E+01
  0.4712389E+01    0.4712389E+01    0.4712389E+01    0.4712389E+01    0.4712389E+01    0.4712389E+01    0.4712389E+01    0.5026548E+01    0.5026548E+01    0.5026548E+01
  0.5026548E+01    0.5026548E+01    0.5026548E+01    0.5026548E+01    0.5026548E+01    0.5026548E+01    0.5026548E+01    0.5026548E+01    0.5026548E+01    0.5026548E+01
  0.5026548E+01    0.5026548E+01    0.5026548E+01    0.5026548E+01    0.5026548E+01    0.5026548E+01    0.5026548E+01    0.5026548E+01    0.5340708E+01    0.5340708E+01
  0.5340708E+01    0.5340708E+01    0.5340708E+01    0.5340708E+01    0.5340708E+01    0.5340708E+01    0.5340708E+01    0.5340708E+01    0.5340708E+01    0.5340708E+01
  0.5340708E+01    0.5340708E+01    0.5340708E+01    0.5340708E+01    0.5340708E+01    0.5340708E+01    0.5340708E+01    0.5340708E+01    0.5340708E+01    0.5654867E+01
  0.5654867E+01    0.5654867E+01    0.5654867E+01    0.5654867E+01    0.5654867E+01    0.5654867E+01    0.5654867E+01    0.5654867E+01    0.5654867E+01    0.5654867E+01
  0.5654867E+01    0.5654867E+01    0.5654867E+01    0.5654867E+01    0.5654867E+01    0.5654867E+01    0.5654867E+01    0.5654867E+01    0.5654867E+01    0.5654867E+01
  0.5969026E+01    0.5969026E+01    0.5969026E+01    0.5969026E+01    0.5969026E+01    0.5969026E+01    0.5969026E+01    0.5969026E+01    0.5969026E+01    0.5969026E+01
  0.5969026E+01    0.5969026E+01    0.5969026E+01    0.5969026E+01    0.5969026E+01    0.5969026E+01    0.5969026E+01    0.5969026E+01    0.5969026E+01    0.5969026E+01
  0.5969026E+01    0.6283185E+01    0.6283185E+01    0.6283185E+01    0.6283185E+01    0.6283185E+01    0.6283185E+01    0.6283185E+01    0.6283185E+01    0.6283185E+01
  0.6283185E+01    0.6283185E+01    0.6283185E+01    0.6283185E+01    0.6283185E+01    0.6283185E+01    0.6283185E+01    0.6283185E+01    0.6283185E+01    0.6283185E+01
  0.6283185E+01    0.6283185E+01   -0.4641530E-01   -0.4187024E-01   -0.3322549E-01   -0.2132764E-01   -0.7341330E-02    0.7366009E-02    0.2135606E-01    0.3326086E-01
  0.4191353E-01    0.4642061E-01    0.4638262E-01    0.4184806E-01    0.3321419E-01    0.2132208E-01    0.7340788E-02   -0.7361110E-02   -0.2134611E-01   -0.3324069E-01
 -0.4188210E-01   -0.4642805E-01   -0.1347048E+00   -0.1215167E+00   -0.9643206E-01   -0.6190610E-01   -0.2131809E-01    0.2136007E-01    0.6195122E-01    0.9648060E-01
  0.1215609E+00    0.1347164E+00    0.1346841E+00    0.1214935E+00    0.9641567E-01    0.6189752E-01    0.2131805E-01   -0.2135095E-01   -0.6193304E-01   -0.9645337E-01
 -0.1215336E+00   -0.1347197E+00   -0.2098085E+00   -0.1892684E+00   -0.1501992E+00   -0.9642495E-01   -0.3320911E-01    0.3326069E-01    0.9647735E-01    0.1502500E+00
  0.1893091E+00    0.2098243E+00    0.2097998E+00    0.1892512E+00    0.1501839E+00    0.9641620E-01    0.3320936E-01   -0.3325054E-01   -0.9645824E-01   -0.1502255E+00
 -0.1892892E+00   -0.2098260E+00   -0.2643771E+00   -0.2384944E+00   -0.1892645E+00   -0.1215058E+00   -0.4185076E-01    0.4190347E-01    0.1215573E+00    0.1893112E+00
  0.2385294E+00    0.2643921E+00    0.2643737E+00    0.2384827E+00    0.1892523E+00    0.1214982E+00    0.4185070E-01   -0.4189500E-01   -0.1215419E+00   -0.1892930E+00
 -0.2385166E+00   -0.2643946E+00   -0.2930656E+00   -0.2643744E+00   -0.2098031E+00   -0.1346930E+00   -0.4639616E-01    0.4644407E-01    0.1347387E+00    0.2098431E+00
  0.2644035E+00    0.2930787E+00    0.2930650E+00    0.2643671E+00    0.2097942E+00    0.1346867E+00    0.4639530E-01   -0.4643864E-01   -0.1347284E+00   -0.2098314E+00
 -0.2643961E+00   -0.2930809E+00   -0.2930647E+00   -0.2643747E+00   -0.2098043E+00   -0.1346950E+00   -0.4639930E-01    0.4643948E-01    0.1347328E+00    0.2098365E+00
  0.2643981E+00    0.2930767E+00    0.2930665E+00    0.2643705E+00    0.2097978E+00    0.1346897E+00    0.4639742E-01   -0.4643722E-01   -0.1347275E+00   -0.2098309E+00
 -0.2643959E+00   -0.2930811E+00   -0.2643785E+00   -0.2384963E+00   -0.1892676E+00   -0.1215111E+00   -0.4185914E-01    0.4189101E-01    0.1215407E+00    0.1892924E+00
  0.2385137E+00    0.2643866E+00    0.2643791E+00    0.2384931E+00    0.1892627E+00    0.1215064E+00    0.4185644E-01   -0.4189133E-01   -0.1215395E+00   -0.1892916E+00
 -0.2385158E+00   -0.2643939E+00   -0.2098113E+00   -0.1892709E+00   -0.1502029E+00   -0.9643136E-01   -0.3321974E-01    0.3324411E-01    0.9645378E-01    0.1502214E+00
  0.1892837E+00    0.2098169E+00    0.2098115E+00    0.1892686E+00    0.1501992E+00    0.9642743E-01    0.3321666E-01   -0.3324615E-01   -0.9645535E-01   -0.1502236E+00
 -0.1892878E+00   -0.2098237E+00   -0.1347037E+00   -0.1215168E+00   -0.9643402E-01   -0.6191082E-01   -0.2132685E-01    0.2134503E-01    0.6192753E-01    0.9644781E-01
  0.1215267E+00    0.1347094E+00    0.1347055E+00    0.1215158E+00    0.9643151E-01    0.6190774E-01    0.2132380E-01   -0.2134789E-01   -0.6193061E-01   -0.9645185E-01
 -0.1215324E+00   -0.1347172E+00   -0.4641265E-01   -0.4186805E-01   -0.3322478E-01   -0.2132892E-01   -0.7344966E-02    0.7358175E-02    0.2134102E-01    0.3323464E-01
  0.4187488E-01    0.4641588E-01    0.4641319E-01    0.4186731E-01    0.3322312E-01    0.2132659E-01    0.7342293E-02   -0.7361213E-02   -0.2134488E-01   -0.3323973E-01
 -0.4188180E-01   -0.4642554E-01    0.4642312E-01    0.4188015E-01    0.3323767E-01    0.2134180E-01    0.7357020E-02   -0.7347801E-02   -0.2133339E-01   -0.3323077E-01
 -0.4187535E-01   -0.4642101E-01   -0.4642270E-01   -0.4188026E-01   -0.3323845E-01   -0.2134323E-01   -0.7359073E-02    0.7344917E-02    0.2132945E-01    0.3322564E-01
  0.4186894E-01    0.4641370E-01    0.1347179E+00    0.1215303E+00    0.9644749E-01    0.6192422E-01    0.2133959E-01   -0.2133381E-01   -0.6191884E-01   -0.9644283E-01
 -0.1215263E+00   -0.1347139E+00   -0.1347148E+00   -0.1215289E+00   -0.9644711E-01   -0.6192470E-01   -0.2134105E-01    0.2133126E-01    0.6191500E-01    0.9643757E-01
  0.1215199E+00    0.1347066E+00    0.2098218E+00    0.1892832E+00    0.1502164E+00    0.9644539E-01    0.3323365E-01   -0.3323115E-01   -0.9644303E-01   -0.1502144E+00
 -0.1892814E+00   -0.2098202E+00   -0.2098204E+00   -0.1892819E+00   -0.1502154E+00   -0.9644522E-01   -0.3323458E-01    0.3322883E-01    0.9643899E-01    0.1502087E+00
  0.1892741E+00    0.2098107E+00    0.2643886E+00    0.2385087E+00    0.1892816E+00    0.1215261E+00    0.4187481E-01   -0.4187555E-01   -0.1215268E+00   -0.1892820E+00
 -0.2385086E+00   -0.2643882E+00   -0.2643875E+00   -0.2385069E+00   -0.1892799E+00   -0.1215253E+00   -0.4187531E-01    0.4187317E-01    0.1215225E+00    0.1892762E+00
  0.2385019E+00    0.2643817E+00    0.2930793E+00    0.2643889E+00    0.2098192E+00    0.1347114E+00    0.4641704E-01   -0.4642103E-01   -0.1347150E+00   -0.2098219E+00
 -0.2643895E+00   -0.2930764E+00   -0.2930748E+00   -0.2643853E+00   -0.2098163E+00   -0.1347097E+00   -0.4641735E-01    0.4641839E-01    0.1347100E+00    0.2098150E+00
  0.2643820E+00    0.2930694E+00    0.2930758E+00    0.2643870E+00    0.2098180E+00    0.1347102E+00    0.4641562E-01   -0.4642264E-01   -0.1347167E+00   -0.2098235E+00
 -0.2643905E+00   -0.2930765E+00   -0.2930741E+00   -0.2643838E+00   -0.2098145E+00   -0.1347080E+00   -0.4641584E-01    0.4641943E-01    0.1347104E+00    0.2098149E+00
  0.2643807E+00    0.2930656E+00    0.2643862E+00    0.2385063E+00    0.1892790E+00    0.1215231E+00    0.4187107E-01   -0.4187999E-01   -0.1215316E+00   -0.1892864E+00
 -0.2385115E+00   -0.2643887E+00   -0.2643854E+00   -0.2385027E+00   -0.1892748E+00   -0.1215202E+00   -0.4187121E-01    0.4187603E-01    0.1215242E+00    0.1892767E+00
  0.2385017E+00    0.2643814E+00    0.2098226E+00    0.1892814E+00    0.1502132E+00    0.9644136E-01    0.3322874E-01   -0.3323707E-01   -0.9644941E-01   -0.1502201E+00
 -0.1892852E+00   -0.2098207E+00   -0.2098172E+00   -0.1892760E+00   -0.1502080E+00   -0.9643795E-01   -0.3322895E-01    0.3323283E-01    0.9644137E-01    0.1502092E+00
  0.1892744E+00    0.2098124E+00    0.1347116E+00    0.1215256E+00    0.9644345E-01    0.6192030E-01    0.2133527E-01   -0.2133875E-01   -0.6192383E-01   -0.9644685E-01
 -0.1215283E+00   -0.1347138E+00   -0.1347124E+00   -0.1215237E+00   -0.9643990E-01   -0.6191754E-01   -0.2133557E-01    0.2133520E-01    0.6191688E-01    0.9643677E-01
  0.1215170E+00    0.1347003E+00    0.4641667E-01    0.4187579E-01    0.3323459E-01    0.2133985E-01    0.7355874E-02   -0.7348235E-02   -0.2133179E-01   -0.3322604E-01
 -0.4186831E-01   -0.4641934E-01   -0.4642651E-01   -0.4188166E-01   -0.3323602E-01   -0.2133930E-01   -0.7356423E-02    0.7347372E-02    0.2133087E-01    0.3322418E-01
  0.4186747E-01    0.4641274E-01    0.4642670E-01    0.1347213E+00    0.2098298E+00    0.2643978E+00    0.2930843E+00    0.2930797E+00    0.2643776E+00    0.2097812E+00
  0.1346186E+00    0.4620280E-01   -0.4652211E-01   -0.1347593E+00   -0.2098399E+00   -0.2643922E+00   -0.2930671E+00   -0.2930654E+00   -0.2643760E+00   -0.2098021E+00
 -0.1347010E+00   -0.4641199E-01    0.4188181E-01    0.1215330E+00    0.1892887E+00    0.2385151E+00    0.2643926E+00    0.2643859E+00    0.2384902E+00    0.1892344E+00
  0.1214325E+00    0.4172623E-01   -0.4197530E-01   -0.1215807E+00   -0.1893068E+00   -0.2385152E+00   -0.2643830E+00   -0.2643785E+00   -0.2384961E+00   -0.1892669E+00
 -0.1215146E+00   -0.4186659E-01    0.3323800E-01    0.9644872E-01    0.1502191E+00    0.1892845E+00    0.2098194E+00    0.2098112E+00    0.1892571E+00    0.1501654E+00
  0.9636223E-01    0.3312579E-01   -0.3331807E-01   -0.9649857E-01   -0.1502438E+00   -0.1892924E+00   -0.2098193E+00   -0.2098133E+00   -0.1892716E+00   -0.1502035E+00
 -0.9643391E-01   -0.3322455E-01    0.2134046E-01    0.6192348E-01    0.9644531E-01    0.1215255E+00    0.1347075E+00    0.1346991E+00    0.1214988E+00    0.9639716E-01
  0.6185332E-01    0.2125682E-01   -0.2140629E-01   -0.6197063E-01   -0.9647386E-01   -0.1215407E+00   -0.1347166E+00   -0.1347103E+00   -0.1215203E+00   -0.9643634E-01
 -0.6191352E-01   -0.2133043E-01    0.7353348E-02    0.2133666E-01    0.3323097E-01    0.4187103E-01    0.4641000E-01    0.4640221E-01    0.4184715E-01    0.3319048E-01
  0.2128151E-01    0.7290640E-02   -0.7408117E-02   -0.2137976E-01   -0.3326130E-01   -0.4189178E-01   -0.4642650E-01   -0.4642068E-01   -0.4187343E-01   -0.3322886E-01
 -0.2133264E-01   -0.7348742E-02   -0.7352836E-02   -0.2133825E-01   -0.3323578E-01   -0.4188151E-01   -0.4642997E-01   -0.4643676E-01   -0.4190175E-01   -0.3326869E-01
 -0.2138122E-01   -0.7400443E-02    0.7306821E-02    0.2129941E-01    0.3320522E-01    0.4185725E-01    0.4640823E-01    0.4641325E-01    0.4187264E-01    0.3323162E-01
  0.2133657E-01    0.7352027E-02   -0.2133908E-01   -0.6192423E-01   -0.9644890E-01   -0.1215341E+00   -0.1347250E+00   -0.1347306E+00   -0.1215507E+00   -0.9647519E-01
 -0.6195756E-01   -0.2137545E-01    0.2129939E-01    0.6188901E-01    0.9641884E-01    0.1215079E+00    0.1347000E+00    0.1347040E+00    0.1215202E+00    0.9643966E-01
  0.6191780E-01    0.2133403E-01   -0.3323715E-01   -0.9644887E-01   -0.1502210E+00   -0.1892902E+00   -0.2098325E+00   -0.2098371E+00   -0.1893036E+00   -0.1502417E+00
 -0.9647454E-01   -0.3326453E-01    0.3320122E-01    0.9641615E-01    0.1501916E+00    0.1892630E+00    0.2098057E+00    0.2098089E+00    0.1892727E+00    0.1502077E+00
  0.9643815E-01    0.3322764E-01   -0.4188104E-01   -0.1215321E+00   -0.1892884E+00   -0.2385175E+00   -0.2644007E+00   -0.2644045E+00   -0.2385283E+00   -0.1893050E+00
 -0.1215524E+00   -0.4190242E-01    0.4184839E-01    0.1215016E+00    0.1892599E+00    0.2384902E+00    0.2643733E+00    0.2643758E+00    0.2384977E+00    0.1892722E+00
  0.1215184E+00    0.4186824E-01   -0.4642538E-01   -0.1347192E+00   -0.2098273E+00   -0.2643976E+00   -0.2930885E+00   -0.2930916E+00   -0.2644064E+00   -0.2098408E+00
 -0.1347356E+00   -0.4644274E-01    0.4639519E-01    0.1346905E+00    0.2097998E+00    0.2643706E+00    0.2930612E+00    0.2930632E+00    0.2643765E+00    0.2098095E+00
  0.1347038E+00    0.4641122E-01   -0.4642649E-01   -0.1347198E+00   -0.2098275E+00   -0.2643974E+00   -0.2930879E+00   -0.2930905E+00   -0.2644049E+00   -0.2098387E+00
 -0.1347333E+00   -0.4644046E-01    0.4639722E-01    0.1346919E+00    0.2098006E+00    0.2643710E+00    0.2930612E+00    0.2930628E+00    0.2643760E+00    0.2098089E+00
  0.1347031E+00    0.4641075E-01   -0.4188254E-01   -0.1215332E+00   -0.1892888E+00   -0.2385169E+00   -0.2643989E+00   -0.2644012E+00   -0.2385234E+00   -0.1892987E+00
 -0.1215452E+00   -0.4189523E-01    0.4185466E-01    0.1215063E+00    0.1892627E+00    0.2384913E+00    0.2643731E+00    0.2643747E+00    0.2384960E+00    0.1892702E+00
  0.1215163E+00    0.4186623E-01   -0.3323905E-01   -0.9645043E-01   -0.1502217E+00   -0.1892896E+00   -0.2098299E+00   -0.2098320E+00   -0.1892957E+00   -0.1502311E+00
 -0.9646213E-01   -0.3325184E-01    0.3321229E-01    0.9642436E-01    0.1501965E+00    0.1892649E+00    0.2098053E+00    0.2098069E+00    0.1892697E+00    0.1502043E+00
  0.9643466E-01    0.3322429E-01   -0.2134356E-01   -0.6192752E-01   -0.9645082E-01   -0.1215342E+00   -0.1347223E+00   -0.1347244E+00   -0.1215402E+00   -0.9646022E-01
 -0.6193930E-01   -0.2135641E-01    0.2131622E-01    0.6190134E-01    0.9642596E-01    0.1215105E+00    0.1346992E+00    0.1347010E+00    0.1215160E+00    0.9643486E-01
  0.6191284E-01    0.2132959E-01   -0.7358028E-02   -0.2134256E-01   -0.3323892E-01   -0.4188269E-01   -0.4642800E-01   -0.4643017E-01   -0.4188906E-01   -0.3324919E-01
 -0.2135601E-01   -0.7373160E-02    0.7330849E-02    0.2131658E-01    0.3321485E-01    0.4186050E-01    0.4640688E-01    0.4640913E-01    0.4186700E-01    0.3322515E-01
  0.2132989E-01    0.7345533E-02    0.7347569E-02    0.2133109E-01    0.3322614E-01    0.4186798E-01    0.4641027E-01    0.4640797E-01    0.4186097E-01    0.3321438E-01
  0.2131515E-01    0.7328763E-02   -0.7375142E-02   -0.2135720E-01   -0.3324944E-01   -0.4188842E-01   -0.4642870E-01   -0.4642607E-01   -0.4188059E-01   -0.3323676E-01
 -0.2134064E-01   -0.7356405E-02    0.2133170E-01    0.6191544E-01    0.9643798E-01    0.1215197E+00    0.1347050E+00    0.1347025E+00    0.1215120E+00    0.9642472E-01
  0.6189701E-01    0.2130997E-01   -0.2136225E-01   -0.6194298E-01   -0.9646100E-01   -0.1215380E+00   -0.1347201E+00   -0.1347173E+00   -0.1215286E+00   -0.9644547E-01
 -0.6192284E-01   -0.2133888E-01    0.3322903E-01    0.9643947E-01    0.1502097E+00    0.1892759E+00    0.2098135E+00    0.2098110E+00    0.1892677E+00    0.1501947E+00
  0.9641742E-01    0.3320233E-01   -0.3326126E-01   -0.9646789E-01   -0.1502319E+00   -0.1892914E+00   -0.2098248E+00   -0.2098216E+00   -0.1892807E+00   -0.1502139E+00
 -0.9644461E-01   -0.3323454E-01    0.4187320E-01    0.1215225E+00    0.1892770E+00    0.2385037E+00    0.2643835E+00    0.2643809E+00    0.2384952E+00    0.1892608E+00
  0.1214979E+00    0.4184299E-01   -0.4190692E-01   -0.1215521E+00   -0.1892993E+00   -0.2385166E+00   -0.2643905E+00   -0.2643881E+00   -0.2385046E+00   -0.1892777E+00
 -0.1215258E+00   -0.4187494E-01    0.4641455E-01    0.1347077E+00    0.2098149E+00    0.2643834E+00    0.2930725E+00    0.2930699E+00    0.2643747E+00    0.2097984E+00
  0.1346839E+00    0.4639324E-01   -0.4645151E-01   -0.1347409E+00   -0.2098401E+00   -0.2643949E+00   -0.2930768E+00   -0.2930766E+00   -0.2643814E+00   -0.2098138E+00
 -0.1347135E+00   -0.4641599E-01   -0.5500220E-02   -0.1649803E-02    0.4614280E-02    0.1081387E-01    0.1470554E-01    0.1477989E-01    0.1092461E-01    0.4760846E-02
 -0.1413756E-02   -0.5441993E-02   -0.5184723E-02   -0.1196431E-02    0.4847490E-02    0.1112206E-01    0.1509728E-01    0.1484033E-01    0.1104489E-01    0.4973667E-02
 -0.1611627E-02   -0.5439046E-02   -0.1620527E-02    0.2247479E-02    0.8499260E-02    0.1471650E-01    0.1860116E-01    0.1864446E-01    0.1479962E-01    0.8620258E-02
  0.2423114E-02   -0.1499096E-02   -0.1368274E-02    0.2599773E-02    0.8689285E-02    0.1496083E-01    0.1890055E-01    0.1869564E-01    0.1488482E-01    0.8758324E-02
  0.2256849E-02   -0.1578364E-02    0.4663239E-02    0.8525407E-02    0.1479232E-01    0.2102306E-01    0.2487252E-01    0.2492207E-01    0.2108086E-01    0.1486295E-01
  0.8695488E-02    0.4795439E-02    0.4835552E-02    0.8812988E-02    0.1494389E-01    0.2115139E-01    0.2511842E-01    0.2496638E-01    0.2106521E-01    0.1497822E-01
  0.8548360E-02    0.4595083E-02    0.1084704E-01    0.1473048E-01    0.2101212E-01    0.2722412E-01    0.3109150E-01    0.3115406E-01    0.2727624E-01    0.2108455E-01
  0.1494080E-01    0.1099510E-01    0.1103805E-01    0.1502730E-01    0.2111723E-01    0.2735481E-01    0.3134584E-01    0.3114026E-01    0.2728193E-01    0.2122308E-01