 TITLE = "NAVIER-STOKES OUTPUT"
 VARIABLES = "X", "Y", "U", "V", "P", "Pex", "Vor"
 ZONE I =   21, J =   21, DATAPACKING = BLOCK, VARLOCATION=(3=CELLCENTERED, 4=CELLCENTERED,5=CELLCENTERED,6=CELLCENTERED, 7=CELLCENTERED)
  0.0000000E+00    0.3141593E+00    0.6283185E+00    0.9424778E+00    0.1256637E+01    0.1570796E+01    0.1884956E+01    0.2199115E+01    0.2513274E+01    0.2827433E+01
  0.3141593E+01    0.3455752E+01    0.3769911E+01    0.4084071E+01    0.4398230E+01    0.4712389E+01    0.5026548E+01    0.5340708E+01    0.5654867E+01    0.5969026E+01
  0.6283185E+01    0.0000000E+00    0.3141593E+00    0.6283185E+00    0.9424778E+00    0.1256637E+01    0.1570796E+01    0.1884956E+01    0.2199115E+01    0.2513274E+01
  0.2827433E+01    0.3141593E+01    0.3455752E+01    0.3769911E+01    0.4084071E+01    0.4398230E+01    0.4712389E+01    0.5026548E+01    0.5340708E+01    0.5654867E+01
  0.5969026E+01    0.6283185E+01    0.0000000E+00    0.3141593E+00    0.6283185E+00    0.9424778E+00    0.1256637E+01    0.1570796E+01    0.1884956E+01    0.2199115E+01
  0.2513274E+01    0.2827433E+01    0.3141593E+01    0.3455752E+01    0.3769911E+01    0.4084071E+01    0.4398230E+01    0.4712389E+01    0.5026548E+01    0.5340708E+01
  0.5654867E+01    0.5969026E+01    0.6283185E+01    0.0000000E+00    0.3141593E+00    0.6283185E+00    0.9424778E+00    0.1256637E+01    0.1570796E+01    0.1884956E+01
  0.2199115E+01    0.2513274E+01    0.2827433E+01    0.3141593E+01    0.3455752E+01    0.3769911E+01    0.4084071E+01    0.4398230E+01    0.4712389E+01    0.5026548E+01
  0.5340708E+01    0.5654867E+01    0.5969026E+01    0.6283185E+01    0.0000000E+00    0.3141593E+00    0.6283185E+00    0.9424778E+00    0.1256637E+01    0.1570796E+01
  0.1884956E+01    0.2199115E+01    0.2513274E+01    0.2827433E+01    0.3141593E+01    0.3455752E+01    0.3769911E+01    0.4084071E+01    0.4398230E+01    0.4712389E+01
  0.5026548E+01    0.5340708E+01    0.5654867E+01    0.5969026E+01    0.6283185E+01    0.0000000E+00    0.3141593E+00    0.6283185E+00    0.9424778E+00    0.1256637E+01
  0.1570796E+01    0.1884956E+01    0.2199115E+01    0.2513274E+01    0.2827433E+01    0.3141593E+01    0.3455752E+01    0.3769911E+01    0.4084071E+01    0.4398230E+01
  0.4712389E+01    0.5026548E+01    0.5340708E+01    0.5654867E+01    0.5969026E+01    0.6283185E+01    0.0000000E+00    0.3141593E+00    0.6283185E+00    0.9424778E+00
  0.1256637E+01    0.1570796E+01    0.1884956E+01    0.2199115E+01    0.2513274E+01    0.2827433E+01    0.3141593E+01    0.3455752E+01    0.3769911E+01    0.4084071E+01
  0.4398230E+01    0.4712389E+01    0.5026548E+01    0.5340708E+01    0.5654867E+01    0.5969026E+01    0.6283185E+01    0.0000000E+00    0.3141593E+00    0.6283185E+00
  0.9424778E+00    0.1256637E+01    0.1570796E+01    0.1884956E+01    0.2199115E+01    0.2513274E+01    0.2827433E+01    0.3141593E+01    0.3455752E+01    0.3769911E+01
  0.4084071E+01    0.4398230E+01    0.4712389E+01    0.5026548E+01    0.5340708E+01    0.5654867E+01    0.5969026E+01    0.6283185E+01    0.0000000E+00    0.3141593E+00
  0.6283185E+00    0.9424778E+00    0.1256637E+01    0.1570796E+01    0.1884956E+01    0.2199115E+01    0.2513274E+01    0.2827433E+01    0.3141593E+01    0.3455752E+01
  0.3769911E+01    0.4084071E+01    0.4398230E+01    0.4712389E+01    0.5026548E+01    0.5340708E+01    0.5654867E+01    0.5969026E+01    0.6283185E+01    0.0000000E+00
  0.3141593E+00    0.6283185E+00    0.9424778E+00    0.1256637E+01    0.1570796E+01    0.1884956E+01    0.2199115E+01    0.2513274E+01    0.2827433E+01    0.3141593E+01
  0.3455752E+01    0.3769911E+01    0.4084071E+01    0.4398230E+01    0.4712389E+01    0.5026548E+01    0.5340708E+01    0.5654867E+01    0.5969026E+01    0.6283185E+01
  0.0000000E+00    0.3141593E+00    0.6283185E+00    0.9424778E+00    0.1256637E+01    0.1570796E+01    0.1884956E+01    0.2199115E+01    0.2513274E+01    0.2827433E+01
  0.3141593E+01    0.3455752E+01    0.3769911E+01    0.4084071E+01    0.4398230E+01    0.4712389E+01    0.5026548E+01    0.5340708E+01    0.5654867E+01    0.5969026E+01
  0.6283185E+01    0.0000000E+00    0.3141593E+00    0.6283185E+00    0.9424778E+00    0.1256637E+01    0.1570796E+01    0.1884956E+01    0.2199115E+01    0.2513274E+01
  0.2827433E+01    0.3141593E+01    0.3455752E+01    0.3769911E+01    0.4084071E+01    0.4398230E+01    0.4712389E+01    0.5026548E+01    0.5340708E+01    0.5654867E+01
  0.5969026E+01    0.6283185E+01    0.0000000E+00    0.3141593E+00    0.6283185E+00    0.9424778E+00    0.1256637E+01    0.1570796E+01    0.1884956E+01    0.2199115E+01
  0.2513274E+01    0.2827433E+01    0.3141593E+01    0.3455752E+01    0.3769911E+01    0.4084071E+01    0.4398230E+01    0.4712389E+01    0.5026548E+01    0.5340708E+01
  0.5654867E+01    0.5969026E+01    0.6283185E+01    0.0000000E+00    0.3141593E+00    0.6283185E+00    0.9424778E+00    0.1256637E+01    0.1570796E+01    0.1884956E+01
  0.2199115E+01    0.2513274E+01    0.2827433E+01    0.3141593E+01    0.3455752E+01    0.3769911E+01    0.4084071E+01    0.4398230E+01    0.4712389E+01    0.5026548E+01
  0.5340708E+01    0.5654867E+01    0.5969026E+01    0.6283185E+01    0.0000000E+00    0.3141593E+00    0.6283185E+00    0.9424778E+00    0.1256637E+01    0.1570796E+01
  0.1884956E+01    0.2199115E+01    0.2513274E+01    0.2827433E+01    0.3141593E+01    0.3455752E+01    0.3769911E+01    0.4084071E+01    0.4398230E+01    0.4712389E+01
  0.5026548E+01    0.5340708E+01    0.5654867E+01    0.5969026E+01    0.6283185E+01    0.0000000E+00    0.3141593E+00    0.6283185E+00    0.9424778E+00    0.1256637E+01
  0.1570796E+01    0.1884956E+01    0.2199115E+01    0.2513274E+01    0.2827433E+01    0.3141593E+01    0.3455752E+01    0.3769911E+01    0.4084071E+01    0.4398230E+01
  0.4712389E+01    0.5026548E+01    0.5340708E+01    0.5654867E+01    0.5969026E+01    0.6283185E+01    0.0000000E+00    0.3141593E+00    0.6283185E+00    0.9424778E+00
  0.1256637E+01    0.1570796E+01    0.1884956E+01    0.2199115E+01    0.2513274E+01    0.2827433E+01    0.3141593E+01    0.3455752E+01    0.3769911E+01    0.4084071E+01
  0.4398230E+01    0.4712389E+01    0.5026548E+01    0.5340708E+01    0.5654867E+01    0.5969026E+01    0.6283185E+01    0.0000000E+00    0.3141593E+00    0.6283185E+00
  0.9424778E+00    0.1256637E+01    0.1570796E+01    0.1884956E+01    0.2199115E+01    0.2513274E+01    0.2827433E+01    0.3141593E+01    0.3455752E+01    0.3769911E+01
  0.4084071E+01    0.4398230E+01    0.4712389E+01    0.5026548E+01    0.5340708E+01    0.5654867E+01    0.5969026E+01    0.6283185E+01    0.0000000E+00    0.3141593E+00
  0.6283185E+00    0.9424778E+00    0.1256637E+01    0.1570796E+01    0.1884956E+01    0.2199115E+01    0.2513274E+01    0.2827433E+01    0.3141593E+01    0.3455752E+01
  0.3769911E+01    0.4084071E+01    0.4398230E+01    0.4712389E+01    0.5026548E+01    0.5340708E+01    0.5654867E+01    0.5969026E+01    0.6283185E+01    0.0000000E+00
  0.3141593E+00    0.6283185E+00    0.9424778E+00    0.1256637E+01    0.1570796E+01    0.1884956E+01    0.2199115E+01    0.2513274E+01    0.2827433E+01    0.3141593E+01
  0.3455752E+01    0.3769911E+01    0.4084071E+01    0.4398230E+01    0.4712389E+01    0.5026548E+01    0.5340708E+01    0.5654867E+01    0.5969026E+01    0.6283185E+01
  0.0000000E+00    0.3141593E+00    0.6283185E+00    0.9424778E+00    0.1256637E+01    0.1570796E+01    0.1884956E+01    0.2199115E+01    0.2513274E+01    0.2827433E+01
  0.3141593E+01    0.3455752E+01    0.3769911E+01    0.4084071E+01    0.4398230E+01    0.4712389E+01    0.5026548E+01    0.5340708E+01    0.5654867E+01    0.5969026E+01
  0.6283185E+01    0.0000000E+00    0.0000000E+00    0.0000000E+00    0.0000000E+00    0.0000000E+00    0.0000000E+00    0.0000000E+00    0.0000000E+00    0.0000000E+00
  0.0000000E+00    0.0000000E+00    0.0000000E+00    0.0000000E+00    0.0000000E+00    0.0000000E+00    0.0000000E+00    0.0000000E+00    0.0000000E+00    0.0000000E+00
  0.0000000E+00    0.0000000E+00    0.3141593E+00    0.3141593E+00    0.3141593E+00    0.3141593E+00    0.3141593E+00    0.3141593E+00    0.3141593E+00    0.3141593E+00
  0.3141593E+00    0.3141593E+00    0.3141593E+00    0.3141593E+00    0.3141593E+00    0.3141593E+00    0.3141593E+00    0.3141593E+00    0.3141593E+00    0.3141593E+00
  0.3141593E+00    0.3141593E+00    0.3141593E+00    0.6283185E+00    0.6283185E+00    0.6283185E+00    0.6283185E+00    0.6283185E+00    0.6283185E+00    0.6283185E+00
  0.6283185E+00    0.6283185E+00    0.6283185E+00    0.6283185E+00    0.6283185E+00    0.6283185E+00    0.6283185E+00    0.6283185E+00    0.6283185E+00    0.6283185E+00
  0.6283185E+00    0.6283185E+00    0.6283185E+00    0.6283185E+00    0.9424778E+00    0.9424778E+00    0.9424778E+00    0.9424778E+00    0.9424778E+00    0.9424778E+00
  0.9424778E+00    0.9424778E+00    0.9424778E+00    0.9424778E+00    0.9424778E+00    0.9424778E+00    0.9424778E+00    0.9424778E+00    0.9424778E+00    0.9424778E+00
  0.9424778E+00    0.9424778E+00    0.9424778E+00    0.9424778E+00    0.9424778E+00    0.1256637E+01    0.1256637E+01    0.1256637E+01    0.1256637E+01    0.1256637E+01
  0.1256637E+01    0.1256637E+01    0.1256637E+01    0.1256637E+01    0.1256637E+01    0.1256637E+01    0.1256637E+01    0.1256637E+01    0.1256637E+01    0.1256637E+01
  0.1256637E+01    0.1256637E+01    0.1256637E+01    0.1256637E+01    0.1256637E+01    0.1256637E+01    0.1570796E+01    0.1570796E+01    0.1570796E+01    0.1570796E+01
  0.1570796E+01    0.1570796E+01    0.1570796E+01    0.1570796E+01    0.1570796E+01    0.1570796E+01    0.1570796E+01    0.1570796E+01    0.1570796E+01    0.1570796E+01
  0.1570796E+01    0.1570796E+01    0.1570796E+01    0.1570796E+01    0.1570796E+01    0.1570796E+01    0.1570796E+01    0.1884956E+01    0.1884956E+01    0.1884956E+01
  0.1884956E+01    0.1884956E+01    0.1884956E+01    0.1884956E+01    0.1884956E+01    0.1884956E+01    0.1884956E+01    0.1884956E+01    0.1884956E+01    0.1884956E+01
  0.1884956E+01    0.1884956E+01    0.1884956E+01    0.1884956E+01    0.1884956E+01    0.1884956E+01    0.1884956E+01    0.1884956E+01    0.2199115E+01    0.2199115E+01
  0.2199115E+01    0.2199115E+01    0.2199115E+01    0.2199115E+01    0.2199115E+01    0.2199115E+01    0.2199115E+01    0.2199115E+01    0.2199115E+01    0.2199115E+01
  0.2199115E+01    0.2199115E+01    0.2199115E+01    0.2199115E+01    0.2199115E+01    0.2199115E+01    0.2199115E+01    0.2199115E+01    0.2199115E+01    0.2513274E+01
  0.2513274E+01    0.2513274E+01    0.2513274E+01    0.2513274E+01    0.2513274E+01    0.2513274E+01    0.2513274E+01    0.2513274E+01    0.2513274E+01    0.2513274E+01
  0.2513274E+01    0.2513274E+01    0.2513274E+01    0.2513274E+01    0.2513274E+01    0.2513274E+01    0.2513274E+01    0.2513274E+01    0.2513274E+01    0.2513274E+01
  0.2827433E+01    0.2827433E+01    0.2827433E+01    0.2827433E+01    0.2827433E+01    0.2827433E+01    0.2827433E+01    0.2827433E+01    0.2827433E+01    0.2827433E+01
  0.2827433E+01    0.2827433E+01    0.2827433E+01    0.2827433E+01    0.2827433E+01    0.2827433E+01    0.2827433E+01    0.2827433E+01    0.2827433E+01    0.2827433E+01
  0.2827433E+01    0.3141593E+01    0.3141593E+01    0.3141593E+01    0.3141593E+01    0.3141593E+01    0.3141593E+01    0.3141593E+01    0.3141593E+01    0.3141593E+01
  0.3141593E+01    0.3141593E+01    0.3141593E+01    0.3141593E+01    0.3141593E+01    0.3141593E+01    0.3141593E+01    0.3141593E+01    0.3141593E+01    0.3141593E+01
  0.3141593E+01    0.3141593E+01    0.3455752E+01    0.3455752E+01    0.3455752E+01    0.3455752E+01    0.3455752E+01    0.3455752E+01    0.3455752E+01    0.3455752E+01
  0.3455752E+01    0.3455752E+01    0.3455752E+01    0.3455752E+01    0.3455752E+01    0.3455752E+01    0.3455752E+01    0.3455752E+01    0.3455752E+01    0.3455752E+01
  0.3455752E+01    0.3455752E+01    0.3455752E+01    0.3769911E+01    0.3769911E+01    0.3769911E+01    0.3769911E+01    0.3769911E+01    0.3769911E+01    0.3769911E+01
  0.3769911E+01    0.3769911E+01    0.3769911E+01    0.3769911E+01    0.3769911E+01    0.3769911E+01    0.3769911E+01    0.3769911E+01    0.3769911E+01    0.3769911E+01
  0.3769911E+01    0.3769911E+01    0.3769911E+01    0.3769911E+01    0.4084071E+01    0.4084071E+01    0.4084071E+01    0.4084071E+01    0.4084071E+01    0.4084071E+01
  0.4084071E+01    0.4084071E+01    0.4084071E+01    0.4084071E+01    0.4084071E+01    0.4084071E+01    0.4084071E+01    0.4084071E+01    0.4084071E+01    0.4084071E+01
  0.4084071E+01    0.4084071E+01    0.4084071E+01    0.4084071E+01    0.4084071E+01    0.4398230E+01    0.4398230E+01    0.4398230E+01    0.4398230E+01    0.4398230E+01
  0.4398230E+01    0.4398230E+01    0.4398230E+01    0.4398230E+01    0.4398230E+01    0.4398230E+01    0.4398230E+01    0.4398230E+01    0.4398230E+01    0.4398230E+01
  0.4398230E+01    0.4398230E+01    0.4398230E+01    0.4398230E+01    0.4398230E+01    0.4398230E+01    0.4712389E+01    0.4712389E+01    0.4712389E+01    0.4712389E+01
  0.4712389E+01    0.4712389E+01    0.4712389E+01    0.4712389E+01    0.4712389E+01    0.4712389E+01    0.4712389E+01    0.4712389E+01    0.4712389E+01    0.4712389E+01
  0.4712389E+01    0.4712389E+01    0.4712389E+01    0.4712389E+01    0.4712389E+01    0.4712389E+01    0.4712389E+01    0.5026548E+01    0.5026548E+01    0.5026548E+01
  0.5026548E+01    0.5026548E+01    0.5026548E+01    0.5026548E+01    0.5026548E+01    0.5026548E+01    0.5026548E+01    0.5026548E+01    0.5026548E+01    0.5026548E+01
  0.5026548E+01    0.5026548E+01    0.5026548E+01    0.5026548E+01    0.5026548E+01    0.5026548E+01    0.5026548E+01    0.5026548E+01    0.5340708E+01    0.5340708E+01
  0.5340708E+01    0.5340708E+01    0.5340708E+01    0.5340708E+01    0.5340708E+01    0.5340708E+01    0.5340708E+01    0.5340708E+01    0.5340708E+01    0.5340708E+01
  0.5340708E+01    0.5340708E+01    0.5340708E+01    0.5340708E+01    0.5340708E+01    0.5340708E+01    0.5340708E+01    0.5340708E+01    0.5340708E+01    0.5654867E+01
  0.5654867E+01    0.5654867E+01    0.5654867E+01    0.5654867E+01    0.5654867E+01    0.5654867E+01    0.5654867E+01    0.5654867E+01    0.5654867E+01    0.5654867E+01
  0.5654867E+01    0.5654867E+01    0.5654867E+01    0.5654867E+01    0.5654867E+01    0.5654867E+01    0.5654867E+01    0.5654867E+01    0.5654867E+01    0.5654867E+01
  0.5969026E+01    0.5969026E+01    0.5969026E+01    0.5969026E+01    0.5969026E+01    0.5969026E+01    0.5969026E+01    0.5969026E+01    0.5969026E+01    0.5969026E+01
  0.5969026E+01    0.5969026E+01    0.5969026E+01    0.5969026E+01    0.5969026E+01    0.5969026E+01    0.5969026E+01    0.5969026E+01    0.5969026E+01    0.5969026E+01
  0.5969026E+01    0.6283185E+01    0.6283185E+01    0.6283185E+01    0.6283185E+01    0.6283185E+01    0.6283185E+01    0.6283185E+01    0.6283185E+01    0.6283185E+01
  0.6283185E+01    0.6283185E+01    0.6283185E+01    0.6283185E+01    0.6283185E+01    0.6283185E+01    0.6283185E+01    0.6283185E+01    0.6283185E+01    0.6283185E+01
  0.6283185E+01    0.6283185E+01   -0.2099332E-01   -0.1893831E-01   -0.1502933E-01   -0.9648676E-02   -0.3323046E-02    0.3328334E-02    0.9655274E-02    0.1503904E-01
  0.1895231E-01    0.2099638E-01    0.2098487E-01    0.1893306E-01    0.1502704E-01    0.9648153E-02    0.3322912E-02   -0.3327210E-02   -0.9652163E-02   -0.1503386E-01
 -0.1894304E-01   -0.2099806E-01   -0.6092673E-01   -0.5496177E-01   -0.4361655E-01   -0.2800130E-01   -0.9644455E-02    0.9657176E-02    0.2801456E-01    0.4363049E-01
  0.5497457E-01    0.6093051E-01    0.6092187E-01    0.5495654E-01    0.4361315E-01    0.2799985E-01    0.9644617E-02   -0.9654867E-02   -0.2800996E-01   -0.4362420E-01
 -0.5496801E-01   -0.6093154E-01   -0.9489588E-01   -0.8560507E-01   -0.6793433E-01   -0.4361314E-01   -0.1502209E-01    0.1504008E-01    0.4363061E-01    0.6795026E-01
  0.8561708E-01    0.9490010E-01    0.9489347E-01    0.8560091E-01    0.6793077E-01    0.4361121E-01    0.1502221E-01   -0.1503754E-01   -0.4362594E-01   -0.6794463E-01
 -0.8561253E-01   -0.9490022E-01   -0.1195753E+00   -0.1078686E+00   -0.8560232E-01   -0.5495602E-01   -0.1892960E-01    0.1895027E-01    0.5497544E-01    0.8561887E-01
  0.1078802E+00    0.1195801E+00    0.1195745E+00    0.1078654E+00    0.8559894E-01    0.5495385E-01    0.1892938E-01   -0.1894818E-01   -0.5497157E-01   -0.8561460E-01
 -0.1078773E+00   -0.1195806E+00   -0.1325510E+00   -0.1195736E+00   -0.9489115E-01   -0.6091964E-01   -0.2098442E-01    0.2100525E-01    0.6093885E-01    0.9490688E-01
  0.1195840E+00    0.1325546E+00    0.1325496E+00    0.1195705E+00    0.9488780E-01    0.6091716E-01    0.2098362E-01   -0.2100410E-01   -0.6093634E-01   -0.9490424E-01
 -0.1195827E+00   -0.1325562E+00   -0.1325511E+00   -0.1195737E+00   -0.9489133E-01   -0.6092004E-01   -0.2098512E-01    0.2100415E-01    0.6093735E-01    0.9490518E-01
  0.1195824E+00    0.1325536E+00    0.1325494E+00    0.1195706E+00    0.9488790E-01    0.6091724E-01    0.2098360E-01   -0.2100419E-01   -0.6093633E-01   -0.9490413E-01
 -0.1195824E+00   -0.1325552E+00   -0.1195753E+00   -0.1078687E+00   -0.8560269E-01   -0.5495694E-01   -0.1893141E-01    0.1894733E-01    0.5497132E-01    0.8561393E-01
  0.1078756E+00    0.1195773E+00    0.1195738E+00    0.1078656E+00    0.8559920E-01    0.5495382E-01    0.1892914E-01   -0.1894850E-01   -0.5497178E-01   -0.8561454E-01
 -0.1078770E+00   -0.1195801E+00   -0.9489594E-01   -0.8560505E-01   -0.6793453E-01   -0.4361400E-01   -0.1502418E-01    0.1503633E-01    0.4362484E-01    0.6794268E-01
  0.8560950E-01    0.9489598E-01    0.9489315E-01    0.8560158E-01    0.6793085E-01    0.4361054E-01    0.1502132E-01   -0.1503847E-01   -0.4362663E-01   -0.6794468E-01
 -0.8561230E-01   -0.9490028E-01   -0.6092674E-01   -0.5496135E-01   -0.4361610E-01   -0.2800141E-01   -0.9645749E-02    0.9654005E-02    0.2800860E-01    0.4362127E-01
  0.5496366E-01    0.6092559E-01    0.6092356E-01    0.5495779E-01    0.4361239E-01    0.2799787E-01    0.9642532E-02   -0.9656879E-02   -0.2801128E-01   -0.4362416E-01
 -0.5496705E-01   -0.6092942E-01   -0.2099242E-01   -0.1893712E-01   -0.1502786E-01   -0.9647428E-02   -0.3322702E-02    0.3327153E-02    0.9651229E-02    0.1503029E-01
  0.1893783E-01    0.2099149E-01    0.2099011E-01    0.1893395E-01    0.1502443E-01    0.9643983E-02    0.3319306E-02   -0.3330389E-02   -0.9654491E-02   -0.1503391E-01
 -0.1894182E-01   -0.2099593E-01    0.2099497E-01    0.1894029E-01    0.1503145E-01    0.9651106E-02    0.3325887E-02   -0.3324997E-02   -0.9650573E-02   -0.1503171E-01
 -0.1894157E-01   -0.2099746E-01   -0.2099818E-01   -0.1894351E-01   -0.1503468E-01   -0.9654393E-02   -0.3329193E-02    0.3321606E-02    0.9646907E-02    0.1502767E-01
  0.1893697E-01    0.2099192E-01    0.6092801E-01    0.5496408E-01    0.4361956E-01    0.2800509E-01    0.9649129E-02   -0.9651536E-02   -0.2800757E-01   -0.4362214E-01
 -0.5496683E-01   -0.6093110E-01   -0.6093109E-01   -0.5496694E-01   -0.4362240E-01   -0.2800795E-01   -0.9652215E-02    0.9648119E-02    0.2800386E-01    0.4361807E-01
  0.5496252E-01    0.6092699E-01    0.9489842E-01    0.8560805E-01    0.6793803E-01    0.4361781E-01    0.1502782E-01   -0.1503334E-01   -0.4362297E-01   -0.6794264E-01
 -0.8561168E-01   -0.9490042E-01   -0.9489984E-01   -0.8560999E-01   -0.6794013E-01   -0.4362018E-01   -0.1503066E-01    0.1503009E-01    0.4361923E-01    0.6793841E-01
  0.8560736E-01    0.9489622E-01    0.1195771E+00    0.1078712E+00    0.8560595E-01    0.5496072E-01    0.1893532E-01   -0.1894371E-01   -0.5496851E-01   -0.8561266E-01
 -0.1078764E+00   -0.1195804E+00   -0.1195793E+00   -0.1078729E+00   -0.8560758E-01   -0.5496266E-01   -0.1893778E-01    0.1894055E-01    0.5496461E-01    0.8560829E-01
  0.1078716E+00    0.1195751E+00    0.1325515E+00    0.1195755E+00    0.9489416E-01    0.6092359E-01    0.2098916E-01   -0.2100001E-01   -0.6093361E-01   -0.9490251E-01
 -0.1195817E+00   -0.1325553E+00   -0.1325535E+00   -0.1195767E+00   -0.9489516E-01   -0.6092489E-01   -0.2099129E-01    0.2099690E-01    0.6092977E-01    0.9489822E-01
  0.1195774E+00    0.1325520E+00    0.1325529E+00    0.1195755E+00    0.9489356E-01    0.6092277E-01    0.2098824E-01   -0.2100092E-01   -0.6093431E-01   -0.9490297E-01
 -0.1195817E+00   -0.1325548E+00   -0.1325526E+00   -0.1195754E+00   -0.9489364E-01   -0.6092351E-01   -0.2099009E-01    0.2099797E-01    0.6093038E-01    0.9489847E-01
  0.1195775E+00    0.1325514E+00    0.1195757E+00    0.1078695E+00    0.8560383E-01    0.5495830E-01    0.1893275E-01   -0.1894617E-01   -0.5497050E-01   -0.8561381E-01
 -0.1078763E+00   -0.1195791E+00   -0.1195767E+00   -0.1078693E+00   -0.8560351E-01   -0.5495863E-01   -0.1893422E-01    0.1894329E-01    0.5496643E-01    0.8560918E-01
  0.1078716E+00    0.1195741E+00    0.9489495E-01    0.8560509E-01    0.6793491E-01    0.4361432E-01    0.1502424E-01   -0.1503664E-01   -0.4362559E-01   -0.6794390E-01
 -0.8561124E-01   -0.9489832E-01   -0.9489592E-01   -0.8560466E-01   -0.6793428E-01   -0.4361421E-01   -0.1502539E-01    0.1503395E-01    0.4362194E-01    0.6793981E-01
  0.8560734E-01    0.9489593E-01    0.6092831E-01    0.5496234E-01    0.4361665E-01    0.2800157E-01    0.9645569E-02   -0.9654610E-02   -0.2800954E-01   -0.4362239E-01
 -0.5496521E-01   -0.6092814E-01   -0.6092682E-01   -0.5496120E-01   -0.4361585E-01   -0.2800130E-01   -0.9646344E-02    0.9652560E-02    0.2800681E-01    0.4361937E-01
  0.5496215E-01    0.6092547E-01    0.2099365E-01    0.1893841E-01    0.1502898E-01    0.9648284E-02    0.3323447E-02   -0.3326464E-02   -0.9650415E-02   -0.1502897E-01
 -0.1893658E-01   -0.2099386E-01   -0.2099560E-01   -0.1893922E-01   -0.1502946E-01   -0.9648363E-02   -0.3323606E-02    0.3325377E-02    0.9649636E-02    0.1502877E-01
  0.1893530E-01    0.2098871E-01    0.2099881E-01    0.6093095E-01    0.9489810E-01    0.1195754E+00    0.1325453E+00    0.1325384E+00    0.1195551E+00    0.9486368E-01
  0.6087850E-01    0.2090770E-01   -0.2104683E-01   -0.6096623E-01   -0.9492385E-01   -0.1195967E+00   -0.1325646E+00   -0.1325566E+00   -0.1195793E+00   -0.9489680E-01
 -0.6092298E-01   -0.2099055E-01    0.1894335E-01    0.5496647E-01    0.8560836E-01    0.1078693E+00    0.1195690E+00    0.1195617E+00    0.1078475E+00    0.8557156E-01
  0.5491323E-01    0.1887310E-01   -0.1899213E-01   -0.5500388E-01   -0.8563658E-01   -0.1078919E+00   -0.1195890E+00   -0.1195823E+00   -0.1078737E+00   -0.8560666E-01
 -0.5495983E-01   -0.1893518E-01    0.1503309E-01    0.4362093E-01    0.6793789E-01    0.8560327E-01    0.9488707E-01    0.9487980E-01    0.8558154E-01    0.6790195E-01
  0.4357192E-01    0.1497553E-01   -0.1507933E-01   -0.4365886E-01   -0.6796792E-01   -0.8562775E-01   -0.9490907E-01   -0.9490286E-01   -0.8560963E-01   -0.6793789E-01
 -0.4361672E-01   -0.1502707E-01    0.9651333E-02    0.2800521E-01    0.4361664E-01    0.5495711E-01    0.6091585E-01    0.6090897E-01    0.5493675E-01    0.4358372E-01
  0.2796198E-01    0.9602713E-02   -0.9694228E-02   -0.2804240E-01   -0.4364762E-01   -0.5498338E-01   -0.6094008E-01   -0.6093431E-01   -0.5496635E-01   -0.4361962E-01
 -0.2800420E-01   -0.9648497E-02    0.3324599E-02    0.9647784E-02    0.1502538E-01    0.1893062E-01    0.2098071E-01    0.2097455E-01    0.1891247E-01    0.1499650E-01
  0.9610740E-02    0.3283584E-02   -0.3364602E-02   -0.9683853E-02   -0.1505686E-01   -0.1895850E-01   -0.2100703E-01   -0.2100188E-01   -0.1894322E-01   -0.1503194E-01
 -0.9650513E-02   -0.3325404E-02   -0.3328091E-02   -0.9654450E-02   -0.1503719E-01   -0.1894966E-01   -0.2100919E-01   -0.2101453E-01   -0.1896525E-01   -0.1506168E-01
 -0.9685426E-02   -0.3361998E-02    0.3290116E-02    0.9619337E-02    0.1500539E-01    0.1892051E-01    0.2098112E-01    0.2098555E-01    0.1893372E-01    0.1502678E-01
  0.9647531E-02    0.3322924E-02   -0.9654786E-02   -0.2801172E-01   -0.4362816E-01   -0.5497561E-01   -0.6094359E-01   -0.6094812E-01   -0.5498871E-01   -0.4364859E-01
 -0.2803741E-01   -0.9682784E-02    0.9618737E-02    0.2797761E-01    0.4359637E-01    0.5494562E-01    0.6091423E-01    0.6091804E-01    0.5495674E-01    0.4361417E-01
  0.2800098E-01    0.9645579E-02   -0.1503665E-01   -0.4362738E-01   -0.6794902E-01   -0.8562098E-01   -0.9491361E-01   -0.9491736E-01   -0.8563188E-01   -0.6796596E-01
 -0.4364853E-01   -0.1505976E-01    0.1500199E-01    0.4359405E-01    0.6791723E-01    0.8559034E-01    0.9488336E-01    0.9488651E-01    0.8559960E-01    0.6793205E-01
  0.4361336E-01    0.1502421E-01   -0.1894735E-01   -0.5497303E-01   -0.8561920E-01   -0.1078861E+00   -0.1195941E+00   -0.1195972E+00   -0.1078952E+00   -0.8563324E-01
 -0.5499048E-01   -0.1896624E-01    0.1891331E-01    0.5494007E-01    0.8558734E-01    0.1078550E+00    0.1195632E+00    0.1195658E+00    0.1078628E+00    0.8559978E-01
  0.5495614E-01    0.1893179E-01   -0.2100318E-01   -0.6093775E-01   -0.9490891E-01   -0.1195913E+00   -0.1325691E+00   -0.1325718E+00   -0.1195991E+00   -0.9492092E-01
 -0.6095273E-01   -0.2101942E-01    0.2096999E-01    0.6090528E-01    0.9487724E-01    0.1195602E+00    0.1325380E+00    0.1325403E+00    0.1195669E+00    0.9488783E-01
  0.6091902E-01    0.2098551E-01   -0.2100353E-01   -0.6093806E-01   -0.9490905E-01   -0.1195913E+00   -0.1325687E+00   -0.1325711E+00   -0.1195982E+00   -0.9491984E-01
 -0.6095152E-01   -0.2101832E-01    0.2097086E-01    0.6090590E-01    0.9487743E-01    0.1195600E+00    0.1325376E+00    0.1325397E+00    0.1195662E+00    0.9488721E-01
  0.6091843E-01    0.2098513E-01   -0.1894892E-01   -0.5497413E-01   -0.8561969E-01   -0.1078858E+00   -0.1195930E+00   -0.1195953E+00   -0.1078925E+00   -0.8562991E-01
 -0.5498689E-01   -0.1896284E-01    0.1891608E-01    0.5494187E-01    0.8558803E-01    0.1078547E+00    0.1195621E+00    0.1195641E+00    0.1078608E+00    0.8559768E-01
  0.5495414E-01    0.1893004E-01   -0.1503934E-01   -0.4362924E-01   -0.6794993E-01   -0.8562073E-01   -0.9491204E-01   -0.9491439E-01   -0.8562751E-01   -0.6796049E-01
 -0.4364258E-01   -0.1505398E-01    0.1500676E-01    0.4359714E-01    0.6791854E-01    0.8558992E-01    0.9488148E-01    0.9488378E-01    0.8559638E-01    0.6792857E-01
  0.4361000E-01    0.1502096E-01   -0.9658130E-02   -0.2801432E-01   -0.4362960E-01   -0.5497561E-01   -0.6094187E-01   -0.6094439E-01   -0.5498304E-01   -0.4364127E-01
 -0.2802905E-01   -0.9674616E-02    0.9625514E-02    0.2798222E-01    0.4359832E-01    0.5494512E-01    0.6091194E-01    0.6091439E-01    0.5495239E-01    0.4360976E-01
  0.2799668E-01    0.9641735E-02   -0.3332695E-02   -0.9658004E-02   -0.1503936E-01   -0.1895014E-01   -0.2100759E-01   -0.2101050E-01   -0.1895863E-01   -0.1505265E-01
 -0.9674809E-02   -0.3351290E-02    0.3299192E-02    0.9625445E-02    0.1500811E-01    0.1892021E-01    0.2097841E-01    0.2098126E-01    0.1892867E-01    0.1502143E-01
  0.9642288E-02    0.3318150E-02    0.3319331E-02    0.9643570E-02    0.1502253E-01    0.1892954E-01    0.2098188E-01    0.2097845E-01    0.1891959E-01    0.1500686E-01
  0.9623588E-02    0.3297159E-02   -0.3353124E-02   -0.9676228E-02   -0.1505333E-01   -0.1895862E-01   -0.2100995E-01   -0.2100646E-01   -0.1894874E-01   -0.1503791E-01
 -0.9656472E-02   -0.3331360E-02    0.9645915E-02    0.2800050E-01    0.4361316E-01    0.5495526E-01    0.6091617E-01    0.6091221E-01    0.5494359E-01    0.4359471E-01
  0.2797704E-01    0.9619593E-02   -0.9680377E-02   -0.2803340E-01   -0.4364367E-01   -0.5498348E-01   -0.6094284E-01   -0.6093896E-01   -0.5497199E-01   -0.4362542E-01
 -0.2801016E-01   -0.9654328E-02    0.1502675E-01    0.4361556E-01    0.6793380E-01    0.8560059E-01    0.9488632E-01    0.9488179E-01    0.8558717E-01    0.6791266E-01
  0.4358894E-01    0.1499737E-01   -0.1506300E-01   -0.4364930E-01   -0.6796415E-01   -0.8562786E-01   -0.9491162E-01   -0.9490724E-01   -0.8561475E-01   -0.6794317E-01
 -0.4362257E-01   -0.1503301E-01    0.1893721E-01    0.5496122E-01    0.8560421E-01    0.1078661E+00    0.1195672E+00    0.1195621E+00    0.1078509E+00    0.8558029E-01
  0.5493151E-01    0.1890501E-01   -0.1897416E-01   -0.5499511E-01   -0.8563394E-01   -0.1078925E+00   -0.1195909E+00   -0.1195860E+00   -0.1078780E+00   -0.8561058E-01
 -0.5496531E-01   -0.1894191E-01    0.2099349E-01    0.6092615E-01    0.9489438E-01    0.1195717E+00    0.1325423E+00    0.1325370E+00    0.1195549E+00    0.9486759E-01
  0.6089461E-01    0.2096220E-01   -0.2103111E-01   -0.6096012E-01   -0.9492389E-01   -0.1195984E+00   -0.1325647E+00   -0.1325599E+00   -0.1195829E+00   -0.9489738E-01
 -0.6092752E-01   -0.2099672E-01   -0.1286219E-04    0.7598732E-03    0.2025441E-02    0.3291833E-02    0.4068335E-02    0.4083889E-02    0.3305038E-02    0.2024997E-02
  0.7780112E-03   -0.6398883E-04   -0.3031560E-04    0.8948970E-03    0.2080862E-02    0.3308426E-02    0.4240900E-02    0.4127682E-02    0.3296759E-02    0.2143919E-02
  0.7479039E-03   -0.9613918E-04    0.7699667E-03    0.1554184E-02    0.2817108E-02    0.4086421E-02    0.4867239E-02    0.4870445E-02    0.4091439E-02    0.2821065E-02
  0.1570544E-02    0.7410016E-03    0.7488673E-03    0.1661448E-02    0.2856891E-02    0.4097369E-02    0.5002251E-02    0.4903455E-02    0.4085126E-02    0.2901190E-02
  0.1525906E-02    0.7019580E-03    0.2063429E-02    0.2849213E-02    0.4121487E-02    0.5407816E-02    0.6176673E-02    0.6177607E-02    0.5411187E-02    0.4119047E-02
  0.2882210E-02    0.2077892E-02    0.2036617E-02    0.2930551E-02    0.4179815E-02    0.5383491E-02    0.6268103E-02    0.6225590E-02    0.5360393E-02    0.4164079E-02
  0.2844060E-02    0.1967483E-02    0.3328592E-02    0.4120764E-02    0.5412684E-02    0.6693169E-02    0.7455611E-02    0.7481172E-02    0.6694521E-02    0.5391382E-02
  0.4198238E-02    0.3361432E-02    0.3293830E-02    0.4225344E-02    0.5447066E-02    0.6633953E-02    0.7562638E-02    0.7487722E-02    0.6608710E-02    0.5462034E-02