 TITLE = "NAVIER-STOKES OUTPUT"
 VARIABLES = "X", "Y", "U", "V", "P", "Pex", "Vor"
 ZONE I =   21, J =   21, DATAPACKING = BLOCK, VARLOCATION=(3=CELLCENTERED, 4=CELLCENTERED,5=CELLCENTERED,6=CELLCENTERED, 7=CELLCENTERED)
  0.0000000E+00    0.3141593E+00    0.6283185E+00    0.9424778E+00    0.1256637E+01    0.1570796E+01    0.1884956E+01    0.2199115E+01    0.2513274E+01    0.2827433E+01
  0.3141593E+01    0.3455752E+01    0.3769911E+01    0.4084071E+01    0.4398230E+01    0.4712389E+01    0.5026548E+01    0.5340708E+01    0.5654867E+01    0.5969026E+01
  0.6283185E+01    0.0000000E+00    0.3141593E+00    0.6283185E+00    0.9424778E+00    0.1256637E+01    0.1570796E+01    0.1884956E+01    0.2199115E+01    0.2513274E+01
  0.2827433E+01    0.3141593E+01    0.3455752E+01    0.3769911E+01    0.4084071E+01    0.4398230E+01    0.4712389E+01    0.5026548E+01    0.5340708E+01    0.5654867E+01
  0.5969026E+01    0.6283185E+01    0.0000000E+00    0.3141593E+00    0.6283185E+00    0.9424778E+00    0.1256637E+01    0.1570796E+01    0.1884956E+01    0.2199115E+01
  0.2513274E+01    0.2827433E+01    0.3141593E+01    0.3455752E+01    0.3769911E+01    0.4084071E+01    0.4398230E+01    0.4712389E+01    0.5026548E+01    0.5340708E+01
  0.5654867E+01    0.5969026E+01    0.6283185E+01    0.0000000E+00    0.3141593E+00    0.6283185E+00    0.9424778E+00    0.1256637E+01    0.1570796E+01    0.1884956E+01
  0.2199115E+01    0.2513274E+01    0.2827433E+01    0.3141593E+01    0.3455752E+01    0.3769911E+01    0.4084071E+01    0.4398230E+01    0.4712389E+01    0.5026548E+01
  0.5340708E+01    0.5654867E+01    0.5969026E+01    0.6283185E+01    0.0000000E+00    0.3141593E+00    0.6283185E+00    0.9424778E+00    0.1256637E+01    0.1570796E+01
  0.1884956E+01    0.2199115E+01    0.2513274E+01    0.2827433E+01    0.3141593E+01    0.3455752E+01    0.3769911E+01    0.4084071E+01    0.4398230E+01    0.4712389E+01
  0.5026548E+01    0.5340708E+01    0.5654867E+01    0.5969026E+01    0.6283185E+01    0.0000000E+00    0.3141593E+00    0.6283185E+00    0.9424778E+00    0.1256637E+01
  0.1570796E+01    0.1884956E+01    0.2199115E+01    0.2513274E+01    0.2827433E+01    0.3141593E+01    0.3455752E+01    0.3769911E+01    0.4084071E+01    0.4398230E+01
  0.4712389E+01    0.5026548E+01    0.5340708E+01    0.5654867E+01    0.5969026E+01    0.6283185E+01    0.0000000E+00    0.3141593E+00    0.6283185E+00    0.9424778E+00
  0.1256637E+01    0.1570796E+01    0.1884956E+01    0.2199115E+01    0.2513274E+01    0.2827433E+01    0.3141593E+01    0.3455752E+01    0.3769911E+01    0.4084071E+01
  0.4398230E+01    0.4712389E+01    0.5026548E+01    0.5340708E+01    0.5654867E+01    0.5969026E+01    0.6283185E+01    0.0000000E+00    0.3141593E+00    0.6283185E+00
  0.9424778E+00    0.1256637E+01    0.1570796E+01    0.1884956E+01    0.2199115E+01    0.2513274E+01    0.2827433E+01    0.3141593E+01    0.3455752E+01    0.3769911E+01
  0.4084071E+01    0.4398230E+01    0.4712389E+01    0.5026548E+01    0.5340708E+01    0.5654867E+01    0.5969026E+01    0.6283185E+01    0.0000000E+00    0.3141593E+00
  0.6283185E+00    0.9424778E+00    0.1256637E+01    0.1570796E+01    0.1884956E+01    0.2199115E+01    0.2513274E+01    0.2827433E+01    0.3141593E+01    0.3455752E+01
  0.3769911E+01    0.4084071E+01    0.4398230E+01    0.4712389E+01    0.5026548E+01    0.5340708E+01    0.5654867E+01    0.5969026E+01    0.6283185E+01    0.0000000E+00
  0.3141593E+00    0.6283185E+00    0.9424778E+00    0.1256637E+01    0.1570796E+01    0.1884956E+01    0.2199115E+01    0.2513274E+01    0.2827433E+01    0.3141593E+01
  0.3455752E+01    0.3769911E+01    0.4084071E+01    0.4398230E+01    0.4712389E+01    0.5026548E+01    0.5340708E+01    0.5654867E+01    0.5969026E+01    0.6283185E+01
  0.0000000E+00    0.3141593E+00    0.6283185E+00    0.9424778E+00    0.1256637E+01    0.1570796E+01    0.1884956E+01    0.2199115E+01    0.2513274E+01    0.2827433E+01
  0.3141593E+01    0.3455752E+01    0.3769911E+01    0.4084071E+01    0.4398230E+01    0.4712389E+01    0.5026548E+01    0.5340708E+01    0.5654867E+01    0.5969026E+01
  0.6283185E+01    0.0000000E+00    0.3141593E+00    0.6283185E+00    0.9424778E+00    0.1256637E+01    0.1570796E+01    0.1884956E+01    0.2199115E+01    0.2513274E+01
  0.2827433E+01    0.3141593E+01    0.3455752E+01    0.3769911E+01    0.4084071E+01    0.4398230E+01    0.4712389E+01    0.5026548E+01    0.5340708E+01    0.5654867E+01
  0.5969026E+01    0.6283185E+01    0.0000000E+00    0.3141593E+00    0.6283185E+00    0.9424778E+00    0.1256637E+01    0.1570796E+01    0.1884956E+01    0.2199115E+01
  0.2513274E+01    0.2827433E+01    0.3141593E+01    0.3455752E+01    0.3769911E+01    0.4084071E+01    0.4398230E+01    0.4712389E+01    0.5026548E+01    0.5340708E+01
  0.5654867E+01    0.5969026E+01    0.6283185E+01    0.0000000E+00    0.3141593E+00    0.6283185E+00    0.9424778E+00    0.1256637E+01    0.1570796E+01    0.1884956E+01
  0.2199115E+01    0.2513274E+01    0.2827433E+01    0.3141593E+01    0.3455752E+01    0.3769911E+01    0.4084071E+01    0.4398230E+01    0.4712389E+01    0.5026548E+01
  0.5340708E+01    0.5654867E+01    0.5969026E+01    0.6283185E+01    0.0000000E+00    0.3141593E+00    0.6283185E+00    0.9424778E+00    0.1256637E+01    0.1570796E+01
  0.1884956E+01    0.2199115E+01    0.2513274E+01    0.2827433E+01    0.3141593E+01    0.3455752E+01    0.3769911E+01    0.4084071E+01    0.4398230E+01    0.4712389E+01
  0.5026548E+01    0.5340708E+01    0.5654867E+01    0.5969026E+01    0.6283185E+01    0.0000000E+00    0.3141593E+00    0.6283185E+00    0.9424778E+00    0.1256637E+01
  0.1570796E+01    0.1884956E+01    0.2199115E+01    0.2513274E+01    0.2827433E+01    0.3141593E+01    0.3455752E+01    0.3769911E+01    0.4084071E+01    0.4398230E+01
  0.4712389E+01    0.5026548E+01    0.5340708E+01    0.5654867E+01    0.5969026E+01    0.6283185E+01    0.0000000E+00    0.3141593E+00    0.6283185E+00    0.9424778E+00
  0.1256637E+01    0.1570796E+01    0.1884956E+01    0.2199115E+01    0.2513274E+01    0.2827433E+01    0.3141593E+01    0.3455752E+01    0.3769911E+01    0.4084071E+01
  0.4398230E+01    0.4712389E+01    0.5026548E+01    0.5340708E+01    0.5654867E+01    0.5969026E+01    0.6283185E+01    0.0000000E+00    0.3141593E+00    0.6283185E+00
  0.9424778E+00    0.1256637E+01    0.1570796E+01    0.1884956E+01    0.2199115E+01    0.2513274E+01    0.2827433E+01    0.3141593E+01    0.3455752E+01    0.3769911E+01
  0.4084071E+01    0.4398230E+01    0.4712389E+01    0.5026548E+01    0.5340708E+01    0.5654867E+01    0.5969026E+01    0.6283185E+01    0.0000000E+00    0.3141593E+00
  0.6283185E+00    0.9424778E+00    0.1256637E+01    0.1570796E+01    0.1884956E+01    0.2199115E+01    0.2513274E+01    0.2827433E+01    0.3141593E+01    0.3455752E+01
  0.3769911E+01    0.4084071E+01    0.4398230E+01    0.4712389E+01    0.5026548E+01    0.5340708E+01    0.5654867E+01    0.5969026E+01    0.6283185E+01    0.0000000E+00
  0.3141593E+00    0.6283185E+00    0.9424778E+00    0.1256637E+01    0.1570796E+01    0.1884956E+01    0.2199115E+01    0.2513274E+01    0.2827433E+01    0.3141593E+01
  0.3455752E+01    0.3769911E+01    0.4084071E+01    0.4398230E+01    0.4712389E+01    0.5026548E+01    0.5340708E+01    0.5654867E+01    0.5969026E+01    0.6283185E+01
  0.0000000E+00    0.3141593E+00    0.6283185E+00    0.9424778E+00    0.1256637E+01    0.1570796E+01    0.1884956E+01    0.2199115E+01    0.2513274E+01    0.2827433E+01
  0.3141593E+01    0.3455752E+01    0.3769911E+01    0.4084071E+01    0.4398230E+01    0.4712389E+01    0.5026548E+01    0.5340708E+01    0.5654867E+01    0.5969026E+01
  0.6283185E+01    0.0000000E+00    0.0000000E+00    0.0000000E+00    0.0000000E+00    0.0000000E+00    0.0000000E+00    0.0000000E+00    0.0000000E+00    0.0000000E+00
  0.0000000E+00    0.0000000E+00    0.0000000E+00    0.0000000E+00    0.0000000E+00    0.0000000E+00    0.0000000E+00    0.0000000E+00    0.0000000E+00    0.0000000E+00
  0.0000000E+00    0.0000000E+00    0.3141593E+00    0.3141593E+00    0.3141593E+00    0.3141593E+00    0.3141593E+00    0.3141593E+00    0.3141593E+00    0.3141593E+00
  0.3141593E+00    0.3141593E+00    0.3141593E+00    0.3141593E+00    0.3141593E+00    0.3141593E+00    0.3141593E+00    0.3141593E+00    0.3141593E+00    0.3141593E+00
  0.3141593E+00    0.3141593E+00    0.3141593E+00    0.6283185E+00    0.6283185E+00    0.6283185E+00    0.6283185E+00    0.6283185E+00    0.6283185E+00    0.6283185E+00
  0.6283185E+00    0.6283185E+00    0.6283185E+00    0.6283185E+00    0.6283185E+00    0.6283185E+00    0.6283185E+00    0.6283185E+00    0.6283185E+00    0.6283185E+00
  0.6283185E+00    0.6283185E+00    0.6283185E+00    0.6283185E+00    0.9424778E+00    0.9424778E+00    0.9424778E+00    0.9424778E+00    0.9424778E+00    0.9424778E+00
  0.9424778E+00    0.9424778E+00    0.9424778E+00    0.9424778E+00    0.9424778E+00    0.9424778E+00    0.9424778E+00    0.9424778E+00    0.9424778E+00    0.9424778E+00
  0.9424778E+00    0.9424778E+00    0.9424778E+00    0.9424778E+00    0.9424778E+00    0.1256637E+01    0.1256637E+01    0.1256637E+01    0.1256637E+01    0.1256637E+01
  0.1256637E+01    0.1256637E+01    0.1256637E+01    0.1256637E+01    0.1256637E+01    0.1256637E+01    0.1256637E+01    0.1256637E+01    0.1256637E+01    0.1256637E+01
  0.1256637E+01    0.1256637E+01    0.1256637E+01    0.1256637E+01    0.1256637E+01    0.1256637E+01    0.1570796E+01    0.1570796E+01    0.1570796E+01    0.1570796E+01
  0.1570796E+01    0.1570796E+01    0.1570796E+01    0.1570796E+01    0.1570796E+01    0.1570796E+01    0.1570796E+01    0.1570796E+01    0.1570796E+01    0.1570796E+01
  0.1570796E+01    0.1570796E+01    0.1570796E+01    0.1570796E+01    0.1570796E+01    0.1570796E+01    0.1570796E+01    0.1884956E+01    0.1884956E+01    0.1884956E+01
  0.1884956E+01    0.1884956E+01    0.1884956E+01    0.1884956E+01    0.1884956E+01    0.1884956E+01    0.1884956E+01    0.1884956E+01    0.1884956E+01    0.1884956E+01
  0.1884956E+01    0.1884956E+01    0.1884956E+01    0.1884956E+01    0.1884956E+01    0.1884956E+01    0.1884956E+01    0.1884956E+01    0.2199115E+01    0.2199115E+01
  0.2199115E+01    0.2199115E+01    0.2199115E+01    0.2199115E+01    0.2199115E+01    0.2199115E+01    0.2199115E+01    0.2199115E+01    0.2199115E+01    0.2199115E+01
  0.2199115E+01    0.2199115E+01    0.2199115E+01    0.2199115E+01    0.2199115E+01    0.2199115E+01    0.2199115E+01    0.2199115E+01    0.2199115E+01    0.2513274E+01
  0.2513274E+01    0.2513274E+01    0.2513274E+01    0.2513274E+01    0.2513274E+01    0.2513274E+01    0.2513274E+01    0.2513274E+01    0.2513274E+01    0.2513274E+01
  0.2513274E+01    0.2513274E+01    0.2513274E+01    0.2513274E+01    0.2513274E+01    0.2513274E+01    0.2513274E+01    0.2513274E+01    0.2513274E+01    0.2513274E+01
  0.2827433E+01    0.2827433E+01    0.2827433E+01    0.2827433E+01    0.2827433E+01    0.2827433E+01    0.2827433E+01    0.2827433E+01    0.2827433E+01    0.2827433E+01
  0.2827433E+01    0.2827433E+01    0.2827433E+01    0.2827433E+01    0.2827433E+01    0.2827433E+01    0.2827433E+01    0.2827433E+01    0.2827433E+01    0.2827433E+01
  0.2827433E+01    0.3141593E+01    0.3141593E+01    0.3141593E+01    0.3141593E+01    0.3141593E+01    0.3141593E+01    0.3141593E+01    0.3141593E+01    0.3141593E+01
  0.3141593E+01    0.3141593E+01    0.3141593E+01    0.3141593E+01    0.3141593E+01    0.3141593E+01    0.3141593E+01    0.3141593E+01    0.3141593E+01    0.3141593E+01
  0.3141593E+01    0.3141593E+01    0.3455752E+01    0.3455752E+01    0.3455752E+01    0.3455752E+01    0.3455752E+01    0.3455752E+01    0.3455752E+01    0.3455752E+01
  0.3455752E+01    0.3455752E+01    0.3455752E+01    0.3455752E+01    0.3455752E+01    0.3455752E+01    0.3455752E+01    0.3455752E+01    0.3455752E+01    0.3455752E+01
  0.3455752E+01    0.3455752E+01    0.3455752E+01    0.3769911E+01    0.3769911E+01    0.3769911E+01    0.3769911E+01    0.3769911E+01    0.3769911E+01    0.3769911E+01
  0.3769911E+01    0.3769911E+01    0.3769911E+01    0.3769911E+01    0.3769911E+01    0.3769911E+01    0.3769911E+01    0.3769911E+01    0.3769911E+01    0.3769911E+01
  0.3769911E+01    0.3769911E+01    0.3769911E+01    0.3769911E+01    0.4084071E+01    0.4084071E+01    0.4084071E+01    0.4084071E+01    0.4084071E+01    0.4084071E+01
  0.4084071E+01    0.4084071E+01    0.4084071E+01    0.4084071E+01    0.4084071E+01    0.4084071E+01    0.4084071E+01    0.4084071E+01    0.4084071E+01    0.4084071E+01
  0.4084071E+01    0.4084071E+01    0.4084071E+01    0.4084071E+01    0.4084071E+01    0.4398230E+01    0.4398230E+01    0.4398230E+01    0.4398230E+01    0.4398230E+01
  0.4398230E+01    0.4398230E+01    0.4398230E+01    0.4398230E+01    0.4398230E+01    0.4398230E+01    0.4398230E+01    0.4398230E+01    0.4398230E+01    0.4398230E+01
  0.4398230E+01    0.4398230E+01    0.4398230E+01    0.4398230E+01    0.4398230E+01    0.4398230E+01    0.4712389E+01    0.4712389E+01    0.4712389E+01    0.4712389E+01
  0.4712389E+01    0.4712389E+01    0.4712389E+01    0.4712389E+01    0.4712389E+01    0.4712389E+01    0.4712389E+01    0.4712389E+01    0.4712389E+01    0.4712389E+01
  0.4712389E+01    0.4712389E+01    0.4712389E+01    0.4712389E+01    0.4712389E+01    0.4712389E+01    0.4712389E+01    0.5026548E+01    0.5026548E+01    0.5026548E+01
  0.5026548E+01    0.5026548E+01    0.5026548E+01    0.5026548E+01    0.5026548E+01    0.5026548E+01    0.5026548E+01    0.5026548E+01    0.5026548E+01    0.5026548E+01
  0.5026548E+01    0.5026548E+01    0.5026548E+01    0.5026548E+01    0.5026548E+01    0.5026548E+01    0.5026548E+01    0.5026548E+01    0.5340708E+01    0.5340708E+01
  0.5340708E+01    0.5340708E+01    0.5340708E+01    0.5340708E+01    0.5340708E+01    0.5340708E+01    0.5340708E+01    0.5340708E+01    0.5340708E+01    0.5340708E+01
  0.5340708E+01    0.5340708E+01    0.5340708E+01    0.5340708E+01    0.5340708E+01    0.5340708E+01    0.5340708E+01    0.5340708E+01    0.5340708E+01    0.5654867E+01
  0.5654867E+01    0.5654867E+01    0.5654867E+01    0.5654867E+01    0.5654867E+01    0.5654867E+01    0.5654867E+01    0.5654867E+01    0.5654867E+01    0.5654867E+01
  0.5654867E+01    0.5654867E+01    0.5654867E+01    0.5654867E+01    0.5654867E+01    0.5654867E+01    0.5654867E+01    0.5654867E+01    0.5654867E+01    0.5654867E+01
  0.5969026E+01    0.5969026E+01    0.5969026E+01    0.5969026E+01    0.5969026E+01    0.5969026E+01    0.5969026E+01    0.5969026E+01    0.5969026E+01    0.5969026E+01
  0.5969026E+01    0.5969026E+01    0.5969026E+01    0.5969026E+01    0.5969026E+01    0.5969026E+01    0.5969026E+01    0.5969026E+01    0.5969026E+01    0.5969026E+01
  0.5969026E+01    0.6283185E+01    0.6283185E+01    0.6283185E+01    0.6283185E+01    0.6283185E+01    0.6283185E+01    0.6283185E+01    0.6283185E+01    0.6283185E+01
  0.6283185E+01    0.6283185E+01    0.6283185E+01    0.6283185E+01    0.6283185E+01    0.6283185E+01    0.6283185E+01    0.6283185E+01    0.6283185E+01    0.6283185E+01
  0.6283185E+01    0.6283185E+01   -0.2318317E-01   -0.2091409E-01   -0.1659774E-01   -0.1065651E-01   -0.3671795E-02    0.3672630E-02    0.1065822E-01    0.1660165E-01
  0.2092044E-01    0.2318465E-01    0.2317939E-01    0.2091153E-01    0.1659644E-01    0.1065605E-01    0.3671295E-02   -0.3672820E-02   -0.1065728E-01   -0.1659951E-01
 -0.2091666E-01   -0.2318587E-01   -0.6728021E-01   -0.6069359E-01   -0.4816570E-01   -0.3092267E-01   -0.1065221E-01    0.1066153E-01    0.3093228E-01    0.4817559E-01
  0.6070221E-01    0.6728267E-01    0.6727689E-01    0.6068961E-01    0.4816268E-01    0.3092099E-01    0.1065192E-01   -0.1066016E-01   -0.3092914E-01   -0.4817107E-01
 -0.6069786E-01   -0.6728329E-01   -0.1047914E+00   -0.9453199E-01   -0.7501899E-01   -0.4816215E-01   -0.1659029E-01    0.1660612E-01    0.4817740E-01    0.7503255E-01
  0.9454178E-01    0.1047943E+00    0.1047887E+00    0.9452779E-01    0.7501514E-01    0.4815973E-01    0.1658996E-01   -0.1660409E-01   -0.4817338E-01   -0.7502753E-01
 -0.9453775E-01   -0.1047942E+00   -0.1320441E+00   -0.1191168E+00   -0.9452905E-01   -0.6068757E-01   -0.2090499E-01    0.2092442E-01    0.6070574E-01    0.9454430E-01
  0.1191272E+00    0.1320477E+00    0.1320424E+00    0.1191130E+00    0.9452502E-01    0.6068472E-01    0.2090435E-01   -0.2092257E-01   -0.6070205E-01   -0.9453992E-01
 -0.1191240E+00   -0.1320477E+00   -0.1463721E+00   -0.1320420E+00   -0.1047862E+00   -0.6727284E-01   -0.2317382E-01    0.2319396E-01    0.6729133E-01    0.1048013E+00
  0.1320517E+00    0.1463751E+00    0.1463702E+00    0.1320382E+00    0.1047821E+00    0.6726968E-01    0.2317264E-01   -0.2319296E-01   -0.6728876E-01   -0.1047983E+00
 -0.1320500E+00   -0.1463763E+00   -0.1463724E+00   -0.1320420E+00   -0.1047864E+00   -0.6727313E-01   -0.2317442E-01    0.2319295E-01    0.6728993E-01    0.1047996E+00
  0.1320502E+00    0.1463742E+00    0.1463698E+00    0.1320381E+00    0.1047822E+00    0.6726967E-01    0.2317252E-01   -0.2319308E-01   -0.6728885E-01   -0.1047983E+00
 -0.1320498E+00   -0.1463758E+00   -0.1320438E+00   -0.1191166E+00   -0.9452910E-01   -0.6068816E-01   -0.2090644E-01    0.2092186E-01    0.6070201E-01    0.9453979E-01
  0.1191229E+00    0.1320450E+00    0.1320413E+00    0.1191128E+00    0.9452492E-01    0.6068440E-01    0.2090382E-01   -0.2092315E-01   -0.6070251E-01   -0.9454016E-01
 -0.1191240E+00   -0.1320474E+00   -0.1047905E+00   -0.9453133E-01   -0.7501859E-01   -0.4816239E-01   -0.1659163E-01    0.1660323E-01    0.4817263E-01    0.7502621E-01
  0.9453533E-01    0.1047903E+00    0.1047874E+00    0.9452735E-01    0.7501432E-01    0.4815842E-01    0.1658846E-01   -0.1660556E-01   -0.4817447E-01   -0.7502807E-01
 -0.9453794E-01   -0.1047944E+00   -0.6727985E-01   -0.6069256E-01   -0.4816449E-01   -0.3092177E-01   -0.1065226E-01    0.1065987E-01    0.3092836E-01    0.4816903E-01
  0.6069427E-01    0.6727808E-01    0.6727601E-01    0.6068845E-01    0.4816030E-01    0.3091780E-01    0.1064874E-01   -0.1066288E-01   -0.3093112E-01   -0.4817195E-01
 -0.6069765E-01   -0.6728216E-01   -0.2318193E-01   -0.2091226E-01   -0.1659536E-01   -0.1065397E-01   -0.3669787E-02    0.3673545E-02    0.1065708E-01    0.1659711E-01
  0.2091232E-01    0.2318026E-01    0.2317889E-01    0.2090860E-01    0.1659153E-01    0.1065014E-01    0.3666181E-02   -0.3676895E-02   -0.1066048E-01   -0.1660070E-01
 -0.2091618E-01   -0.2318449E-01    0.2318405E-01    0.2091481E-01    0.1659828E-01    0.1065690E-01    0.3672219E-02   -0.3672060E-02   -0.1065711E-01   -0.1659916E-01
 -0.2091653E-01   -0.2318666E-01   -0.2318726E-01   -0.2091823E-01   -0.1660179E-01   -0.1066040E-01   -0.3675661E-02    0.3668540E-02    0.1065339E-01    0.1659515E-01
  0.2091199E-01    0.2318128E-01    0.6728034E-01    0.6069459E-01    0.4816722E-01    0.3092471E-01    0.1065486E-01   -0.1065813E-01   -0.3092796E-01   -0.4817052E-01
 -0.6069796E-01   -0.6728393E-01   -0.6728384E-01   -0.6069772E-01   -0.4817021E-01   -0.3092772E-01   -0.1065809E-01    0.1065467E-01    0.3092419E-01    0.4816636E-01
  0.6069358E-01    0.6727953E-01    0.1047925E+00    0.9453361E-01    0.7502132E-01    0.4816535E-01    0.1659443E-01   -0.1660098E-01   -0.4817150E-01   -0.7502681E-01
 -0.9453795E-01   -0.1047951E+00   -0.1047944E+00   -0.9453577E-01   -0.7502354E-01   -0.4816786E-01   -0.1659731E-01    0.1659767E-01    0.4816760E-01    0.7502256E-01
  0.9453370E-01    0.1047911E+00    0.1320450E+00    0.1191184E+00    0.9453151E-01    0.6069099E-01    0.2090941E-01   -0.2091909E-01   -0.6070002E-01   -0.9453919E-01
 -0.1191242E+00   -0.1320485E+00   -0.1320470E+00   -0.1191201E+00   -0.9453314E-01   -0.6069291E-01   -0.2091189E-01    0.2091579E-01    0.6069601E-01    0.9453475E-01
  0.1191194E+00    0.1320434E+00    0.1463718E+00    0.1320429E+00    0.1047881E+00    0.6727556E-01    0.2317731E-01   -0.2318990E-01   -0.6728715E-01   -0.1047978E+00
 -0.1320501E+00   -0.1463762E+00   -0.1463740E+00   -0.1320441E+00   -0.1047890E+00   -0.6727682E-01   -0.2317953E-01    0.2318667E-01    0.6728306E-01    0.1047932E+00
  0.1320456E+00    0.1463725E+00    0.1463729E+00    0.1320427E+00    0.1047874E+00    0.6727453E-01    0.2317611E-01   -0.2319109E-01   -0.6728821E-01   -0.1047986E+00
 -0.1320502E+00   -0.1463757E+00   -0.1463731E+00   -0.1320426E+00   -0.1047873E+00   -0.6727522E-01   -0.2317799E-01    0.2318788E-01    0.6728376E-01    0.1047937E+00
  0.1320458E+00    0.1463725E+00    0.1320438E+00    0.1191165E+00    0.9452900E-01    0.6068799E-01    0.2090609E-01   -0.2092244E-01   -0.6070298E-01   -0.9454121E-01
 -0.1191247E+00   -0.1320473E+00   -0.1320441E+00   -0.1191158E+00   -0.9452828E-01   -0.6068808E-01   -0.2090764E-01    0.2091908E-01    0.6069827E-01    0.9453597E-01
  0.1191195E+00    0.1320425E+00    0.1047890E+00    0.9453035E-01    0.7501755E-01    0.4816098E-01    0.1658968E-01   -0.1660576E-01   -0.4817568E-01   -0.7502955E-01
 -0.9453862E-01   -0.1047932E+00   -0.1047898E+00   -0.9452937E-01   -0.7501627E-01   -0.4816059E-01   -0.1659106E-01    0.1660251E-01    0.4817102E-01    0.7502425E-01
  0.9453388E-01    0.1047902E+00    0.6727993E-01    0.6069205E-01    0.4816340E-01    0.3092000E-01    0.1064971E-01   -0.1066311E-01   -0.3093215E-01   -0.4817304E-01
 -0.6069798E-01   -0.6728130E-01   -0.6727854E-01   -0.6069015E-01   -0.4816180E-01   -0.3091951E-01   -0.1065072E-01    0.1066025E-01    0.3092787E-01    0.4816854E-01
  0.6069402E-01    0.6727888E-01    0.2318278E-01    0.2091234E-01    0.1659489E-01    0.1065279E-01    0.3668016E-02   -0.3675699E-02   -0.1065962E-01   -0.1659957E-01
 -0.2091445E-01   -0.2318345E-01   -0.2318249E-01   -0.2091128E-01   -0.1659426E-01   -0.1065260E-01   -0.3668480E-02    0.3673522E-02    0.1065696E-01    0.1659729E-01
  0.2091142E-01    0.2317909E-01    0.2318749E-01    0.6728329E-01    0.1047924E+00    0.1320430E+00    0.1463663E+00    0.1463590E+00    0.1320220E+00    0.1047568E+00
  0.6723033E-01    0.2311153E-01   -0.2323598E-01   -0.6732056E-01   -0.1048192E+00   -0.1320637E+00   -0.1463846E+00   -0.1463767E+00   -0.1320455E+00   -0.1047906E+00
 -0.6727582E-01   -0.2317866E-01    0.2091790E-01    0.6069711E-01    0.9453429E-01    0.1191168E+00    0.1320372E+00    0.1320299E+00    0.1190948E+00    0.9449719E-01
  0.6064451E-01    0.2085263E-01   -0.2096618E-01   -0.6073511E-01   -0.9456262E-01   -0.1191385E+00   -0.1320559E+00   -0.1320492E+00   -0.1191198E+00   -0.9453190E-01
 -0.6069054E-01   -0.2090961E-01    0.1660017E-01    0.4816887E-01    0.7502167E-01    0.9452958E-01    0.1047821E+00    0.1047748E+00    0.9450781E-01    0.7498570E-01
  0.4812019E-01    0.1654393E-01   -0.1664616E-01   -0.4820684E-01   -0.7505125E-01   -0.9455286E-01   -0.1048026E+00   -0.1047963E+00   -0.9453462E-01   -0.7502092E-01
 -0.4816442E-01   -0.1659404E-01    0.1065730E-01    0.3092509E-01    0.4816473E-01    0.6068825E-01    0.6726901E-01    0.6726217E-01    0.6066793E-01    0.4813184E-01
  0.3088201E-01    0.1060904E-01   -0.1070037E-01   -0.3096224E-01   -0.4819516E-01   -0.6071341E-01   -0.6729177E-01   -0.6728605E-01   -0.6069637E-01   -0.4816702E-01
 -0.3092390E-01   -0.1065460E-01    0.3671101E-02    0.1065380E-01    0.1659252E-01    0.2090553E-01    0.2317006E-01    0.2316392E-01    0.2088745E-01    0.1656373E-01
  0.1061683E-01    0.3630180E-02   -0.3711315E-02   -0.1068983E-01   -0.1662354E-01   -0.2093247E-01   -0.2319518E-01   -0.2319010E-01   -0.2091724E-01   -0.1659861E-01
 -0.1065652E-01   -0.3672137E-02   -0.3674871E-02   -0.1066072E-01   -0.1660433E-01   -0.2092421E-01   -0.2319791E-01   -0.2320323E-01   -0.2093973E-01   -0.1662874E-01
 -0.1069163E-01   -0.3708742E-02    0.3636860E-02    0.1062572E-01    0.1657300E-01    0.2089585E-01    0.2317077E-01    0.2317519E-01    0.2090896E-01    0.1659425E-01
  0.1065388E-01    0.3669654E-02   -0.1066122E-01   -0.3093193E-01   -0.4817625E-01   -0.6070640E-01   -0.6729615E-01   -0.6730062E-01   -0.6071942E-01   -0.4819657E-01
 -0.3095740E-01   -0.1068895E-01    0.1062498E-01    0.3089788E-01    0.4814478E-01    0.6067694E-01    0.6726747E-01    0.6727119E-01    0.6068792E-01    0.4816246E-01
  0.3092109E-01    0.1065168E-01   -0.1660403E-01   -0.4817560E-01   -0.7503285E-01   -0.9454702E-01   -0.1048081E+00   -0.1048118E+00   -0.9455783E-01   -0.7504963E-01
 -0.4819654E-01   -0.1662689E-01    0.1656927E-01    0.4814229E-01    0.7500123E-01    0.9451674E-01    0.1047783E+00    0.1047813E+00    0.9452587E-01    0.7501590E-01
  0.4816133E-01    0.1659120E-01   -0.2092212E-01   -0.6070397E-01   -0.9454527E-01   -0.1191335E+00   -0.1320619E+00   -0.1320650E+00   -0.1191425E+00   -0.9455919E-01
 -0.6072129E-01   -0.2094086E-01    0.2088815E-01    0.6067110E-01    0.9451362E-01    0.1191027E+00    0.1320313E+00    0.1320340E+00    0.1191104E+00    0.9452581E-01
  0.6068700E-01    0.2090647E-01   -0.2319241E-01   -0.6729061E-01   -0.1048035E+00   -0.1320592E+00   -0.1463898E+00   -0.1463925E+00   -0.1320670E+00   -0.1048155E+00
 -0.6730540E-01   -0.2320839E-01    0.2315903E-01    0.6725811E-01    0.1047719E+00    0.1320282E+00    0.1463589E+00    0.1463612E+00    0.1320348E+00    0.1047824E+00
  0.6727170E-01    0.2317441E-01   -0.2319269E-01   -0.6729090E-01   -0.1048037E+00   -0.1320592E+00   -0.1463895E+00   -0.1463919E+00   -0.1320661E+00   -0.1048144E+00
 -0.6730428E-01   -0.2320739E-01    0.2315985E-01    0.6725861E-01    0.1047720E+00    0.1320280E+00    0.1463585E+00    0.1463605E+00    0.1320341E+00    0.1047818E+00
  0.6727100E-01    0.2317396E-01   -0.2092357E-01   -0.6070496E-01   -0.9454570E-01   -0.1191332E+00   -0.1320609E+00   -0.1320632E+00   -0.1191399E+00   -0.9455601E-01
 -0.6071788E-01   -0.2093766E-01    0.2089069E-01    0.6067263E-01    0.9451405E-01    0.1191022E+00    0.1320299E+00    0.1320321E+00    0.1191083E+00    0.9452365E-01
  0.6068501E-01    0.2090477E-01   -0.1660657E-01   -0.4817730E-01   -0.7503363E-01   -0.9454673E-01   -0.1048066E+00   -0.1048090E+00   -0.9455365E-01   -0.7504444E-01
 -0.4819084E-01   -0.1662142E-01    0.1657360E-01    0.4814498E-01    0.7500210E-01    0.9451582E-01    0.1047761E+00    0.1047783E+00    0.9452239E-01    0.7501240E-01
  0.4815810E-01    0.1658812E-01   -0.1066425E-01   -0.3093429E-01   -0.4817759E-01   -0.6070645E-01   -0.6729457E-01   -0.6729719E-01   -0.6071414E-01   -0.4818963E-01
 -0.3094954E-01   -0.1068135E-01    0.1063121E-01    0.3090181E-01    0.4814601E-01    0.6067585E-01    0.6726458E-01    0.6726708E-01    0.6068337E-01    0.4815789E-01
  0.3091672E-01    0.1064795E-01   -0.3679000E-02   -0.1066385E-01   -0.1660625E-01   -0.2092463E-01   -0.2319645E-01   -0.2319953E-01   -0.2093355E-01   -0.1662026E-01
 -0.1068168E-01   -0.3698742E-02    0.3645131E-02    0.1063096E-01    0.1657488E-01    0.2089472E-01    0.2316733E-01    0.2317041E-01    0.2090358E-01    0.1658874E-01
  0.1064877E-01    0.3665191E-02    0.3666298E-02    0.1065007E-01    0.1659003E-01    0.2090457E-01    0.2317105E-01    0.2316744E-01    0.2089396E-01    0.1657326E-01
  0.1062872E-01    0.3642596E-02   -0.3701072E-02   -0.1068330E-01   -0.1662108E-01   -0.2093364E-01   -0.2319886E-01   -0.2319524E-01   -0.2092319E-01   -0.1660459E-01
 -0.1066217E-01   -0.3677642E-02    0.1065263E-01    0.3092103E-01    0.4816168E-01    0.6068654E-01    0.6726918E-01    0.6726492E-01    0.6067396E-01    0.4814171E-01
  0.3089541E-01    0.1062377E-01   -0.1068831E-01   -0.3095479E-01   -0.4819254E-01   -0.6071455E-01   -0.6729546E-01   -0.6729138E-01   -0.6070227E-01   -0.4817291E-01
 -0.3092971E-01   -0.1065994E-01    0.1659513E-01    0.4816466E-01    0.7501844E-01    0.9452748E-01    0.1047816E+00    0.1047766E+00    0.9451282E-01    0.7499509E-01
  0.4813465E-01    0.1656172E-01   -0.1663267E-01   -0.4819920E-01   -0.7504874E-01   -0.9455406E-01   -0.1048060E+00   -0.1048011E+00   -0.9454000E-01   -0.7502626E-01
 -0.4816964E-01   -0.1659903E-01    0.2091312E-01    0.6069327E-01    0.9453138E-01    0.1191147E+00    0.1320360E+00    0.1320305E+00    0.1190980E+00    0.9450466E-01
  0.6065912E-01    0.2087530E-01   -0.2095246E-01   -0.6072829E-01   -0.9456088E-01   -0.1191400E+00   -0.1320584E+00   -0.1320530E+00   -0.1191245E+00   -0.9453575E-01
 -0.6069493E-01   -0.2091512E-01    0.2318407E-01    0.6728031E-01    0.1047902E+00    0.1320411E+00    0.1463644E+00    0.1463585E+00    0.1320228E+00    0.1047606E+00
  0.6724298E-01    0.2314356E-01   -0.2322457E-01   -0.6731566E-01   -0.1048191E+00   -0.1320659E+00   -0.1463852E+00   -0.1463794E+00   -0.1320493E+00   -0.1047916E+00
 -0.6727889E-01   -0.2318389E-01    0.5179980E-03    0.1470370E-02    0.2981698E-02    0.4483715E-02    0.5435842E-02    0.5376852E-02    0.4362236E-02    0.2794919E-02
  0.1116561E-02   -0.4995493E-04    0.2036842E-03    0.1168182E-02    0.2700477E-02    0.4387271E-02    0.5331570E-02    0.5297398E-02    0.4483374E-02    0.2940234E-02
  0.1356334E-02    0.5935249E-03    0.1477449E-02    0.2422941E-02    0.3932713E-02    0.5452120E-02    0.6390638E-02    0.6328445E-02    0.5332723E-02    0.3758292E-02
  0.2096751E-02    0.1072741E-02    0.1205168E-02    0.2138373E-02    0.3684997E-02    0.5354664E-02    0.6286311E-02    0.6279136E-02    0.5439342E-02    0.3880957E-02
  0.2330998E-02    0.1519748E-02    0.2976137E-02    0.3923060E-02    0.5461580E-02    0.6975110E-02    0.7907479E-02    0.7877826E-02    0.6867307E-02    0.5296841E-02
  0.3693609E-02    0.2675783E-02    0.2751338E-02    0.3722726E-02    0.5243306E-02    0.6876065E-02    0.7862601E-02    0.7825114E-02    0.6946734E-02    0.5449444E-02
  0.3847425E-02    0.2974938E-02    0.4473888E-02    0.5435459E-02    0.6965858E-02    0.8477265E-02    0.9442626E-02    0.9401497E-02    0.8385772E-02    0.6866287E-02
  0.5250632E-02    0.4220934E-02    0.4326243E-02    0.5276281E-02    0.6772508E-02    0.8437586E-02    0.9398469E-02    0.9339160E-02    0.8504898E-02    0.6969387E-02