 TITLE = "NAVIER-STOKES OUTPUT"
 VARIABLES = "X", "Y", "U", "V", "P", "Pex", "Vor"
 ZONE I =   21, J =   21, DATAPACKING = BLOCK, VARLOCATION=(3=CELLCENTERED, 4=CELLCENTERED,5=CELLCENTERED,6=CELLCENTERED, 7=CELLCENTERED)
  0.0000000E+00    0.3141593E+00    0.6283185E+00    0.9424778E+00    0.1256637E+01    0.1570796E+01    0.1884956E+01    0.2199115E+01    0.2513274E+01    0.2827433E+01
  0.3141593E+01    0.3455752E+01    0.3769911E+01    0.4084071E+01    0.4398230E+01    0.4712389E+01    0.5026548E+01    0.5340708E+01    0.5654867E+01    0.5969026E+01
  0.6283185E+01    0.0000000E+00    0.3141593E+00    0.6283185E+00    0.9424778E+00    0.1256637E+01    0.1570796E+01    0.1884956E+01    0.2199115E+01    0.2513274E+01
  0.2827433E+01    0.3141593E+01    0.3455752E+01    0.3769911E+01    0.4084071E+01    0.4398230E+01    0.4712389E+01    0.5026548E+01    0.5340708E+01    0.5654867E+01
  0.5969026E+01    0.6283185E+01    0.0000000E+00    0.3141593E+00    0.6283185E+00    0.9424778E+00    0.1256637E+01    0.1570796E+01    0.1884956E+01    0.2199115E+01
  0.2513274E+01    0.2827433E+01    0.3141593E+01    0.3455752E+01    0.3769911E+01    0.4084071E+01    0.4398230E+01    0.4712389E+01    0.5026548E+01    0.5340708E+01
  0.5654867E+01    0.5969026E+01    0.6283185E+01    0.0000000E+00    0.3141593E+00    0.6283185E+00    0.9424778E+00    0.1256637E+01    0.1570796E+01    0.1884956E+01
  0.2199115E+01    0.2513274E+01    0.2827433E+01    0.3141593E+01    0.3455752E+01    0.3769911E+01    0.4084071E+01    0.4398230E+01    0.4712389E+01    0.5026548E+01
  0.5340708E+01    0.5654867E+01    0.5969026E+01    0.6283185E+01    0.0000000E+00    0.3141593E+00    0.6283185E+00    0.9424778E+00    0.1256637E+01    0.1570796E+01
  0.1884956E+01    0.2199115E+01    0.2513274E+01    0.2827433E+01    0.3141593E+01    0.3455752E+01    0.3769911E+01    0.4084071E+01    0.4398230E+01    0.4712389E+01
  0.5026548E+01    0.5340708E+01    0.5654867E+01    0.5969026E+01    0.6283185E+01    0.0000000E+00    0.3141593E+00    0.6283185E+00    0.9424778E+00    0.1256637E+01
  0.1570796E+01    0.1884956E+01    0.2199115E+01    0.2513274E+01    0.2827433E+01    0.3141593E+01    0.3455752E+01    0.3769911E+01    0.4084071E+01    0.4398230E+01
  0.4712389E+01    0.5026548E+01    0.5340708E+01    0.5654867E+01    0.5969026E+01    0.6283185E+01    0.0000000E+00    0.3141593E+00    0.6283185E+00    0.9424778E+00
  0.1256637E+01    0.1570796E+01    0.1884956E+01    0.2199115E+01    0.2513274E+01    0.2827433E+01    0.3141593E+01    0.3455752E+01    0.3769911E+01    0.4084071E+01
  0.4398230E+01    0.4712389E+01    0.5026548E+01    0.5340708E+01    0.5654867E+01    0.5969026E+01    0.6283185E+01    0.0000000E+00    0.3141593E+00    0.6283185E+00
  0.9424778E+00    0.1256637E+01    0.1570796E+01    0.1884956E+01    0.2199115E+01    0.2513274E+01    0.2827433E+01    0.3141593E+01    0.3455752E+01    0.3769911E+01
  0.4084071E+01    0.4398230E+01    0.4712389E+01    0.5026548E+01    0.5340708E+01    0.5654867E+01    0.5969026E+01    0.6283185E+01    0.0000000E+00    0.3141593E+00
  0.6283185E+00    0.9424778E+00    0.1256637E+01    0.1570796E+01    0.1884956E+01    0.2199115E+01    0.2513274E+01    0.2827433E+01    0.3141593E+01    0.3455752E+01
  0.3769911E+01    0.4084071E+01    0.4398230E+01    0.4712389E+01    0.5026548E+01    0.5340708E+01    0.5654867E+01    0.5969026E+01    0.6283185E+01    0.0000000E+00
  0.3141593E+00    0.6283185E+00    0.9424778E+00    0.1256637E+01    0.1570796E+01    0.1884956E+01    0.2199115E+01    0.2513274E+01    0.2827433E+01    0.3141593E+01
  0.3455752E+01    0.3769911E+01    0.4084071E+01    0.4398230E+01    0.4712389E+01    0.5026548E+01    0.5340708E+01    0.5654867E+01    0.5969026E+01    0.6283185E+01
  0.0000000E+00    0.3141593E+00    0.6283185E+00    0.9424778E+00    0.1256637E+01    0.1570796E+01    0.1884956E+01    0.2199115E+01    0.2513274E+01    0.2827433E+01
  0.3141593E+01    0.3455752E+01    0.3769911E+01    0.4084071E+01    0.4398230E+01    0.4712389E+01    0.5026548E+01    0.5340708E+01    0.5654867E+01    0.5969026E+01
  0.6283185E+01    0.0000000E+00    0.3141593E+00    0.6283185E+00    0.9424778E+00    0.1256637E+01    0.1570796E+01    0.1884956E+01    0.2199115E+01    0.2513274E+01
  0.2827433E+01    0.3141593E+01    0.3455752E+01    0.3769911E+01    0.4084071E+01    0.4398230E+01    0.4712389E+01    0.5026548E+01    0.5340708E+01    0.5654867E+01
  0.5969026E+01    0.6283185E+01    0.0000000E+00    0.3141593E+00    0.6283185E+00    0.9424778E+00    0.1256637E+01    0.1570796E+01    0.1884956E+01    0.2199115E+01
  0.2513274E+01    0.2827433E+01    0.3141593E+01    0.3455752E+01    0.3769911E+01    0.4084071E+01    0.4398230E+01    0.4712389E+01    0.5026548E+01    0.5340708E+01
  0.5654867E+01    0.5969026E+01    0.6283185E+01    0.0000000E+00    0.3141593E+00    0.6283185E+00    0.9424778E+00    0.1256637E+01    0.1570796E+01    0.1884956E+01
  0.2199115E+01    0.2513274E+01    0.2827433E+01    0.3141593E+01    0.3455752E+01    0.3769911E+01    0.4084071E+01    0.4398230E+01    0.4712389E+01    0.5026548E+01
  0.5340708E+01    0.5654867E+01    0.5969026E+01    0.6283185E+01    0.0000000E+00    0.3141593E+00    0.6283185E+00    0.9424778E+00    0.1256637E+01    0.1570796E+01
  0.1884956E+01    0.2199115E+01    0.2513274E+01    0.2827433E+01    0.3141593E+01    0.3455752E+01    0.3769911E+01    0.4084071E+01    0.4398230E+01    0.4712389E+01
  0.5026548E+01    0.5340708E+01    0.5654867E+01    0.5969026E+01    0.6283185E+01    0.0000000E+00    0.3141593E+00    0.6283185E+00    0.9424778E+00    0.1256637E+01
  0.1570796E+01    0.1884956E+01    0.2199115E+01    0.2513274E+01    0.2827433E+01    0.3141593E+01    0.3455752E+01    0.3769911E+01    0.4084071E+01    0.4398230E+01
  0.4712389E+01    0.5026548E+01    0.5340708E+01    0.5654867E+01    0.5969026E+01    0.6283185E+01    0.0000000E+00    0.3141593E+00    0.6283185E+00    0.9424778E+00
  0.1256637E+01    0.1570796E+01    0.1884956E+01    0.2199115E+01    0.2513274E+01    0.2827433E+01    0.3141593E+01    0.3455752E+01    0.3769911E+01    0.4084071E+01
  0.4398230E+01    0.4712389E+01    0.5026548E+01    0.5340708E+01    0.5654867E+01    0.5969026E+01    0.6283185E+01    0.0000000E+00    0.3141593E+00    0.6283185E+00
  0.9424778E+00    0.1256637E+01    0.1570796E+01    0.1884956E+01    0.2199115E+01    0.2513274E+01    0.2827433E+01    0.3141593E+01    0.3455752E+01    0.3769911E+01
  0.4084071E+01    0.4398230E+01    0.4712389E+01    0.5026548E+01    0.5340708E+01    0.5654867E+01    0.5969026E+01    0.6283185E+01    0.0000000E+00    0.3141593E+00
  0.6283185E+00    0.9424778E+00    0.1256637E+01    0.1570796E+01    0.1884956E+01    0.2199115E+01    0.2513274E+01    0.2827433E+01    0.3141593E+01    0.3455752E+01
  0.3769911E+01    0.4084071E+01    0.4398230E+01    0.4712389E+01    0.5026548E+01    0.5340708E+01    0.5654867E+01    0.5969026E+01    0.6283185E+01    0.0000000E+00
  0.3141593E+00    0.6283185E+00    0.9424778E+00    0.1256637E+01    0.1570796E+01    0.1884956E+01    0.2199115E+01    0.2513274E+01    0.2827433E+01    0.3141593E+01
  0.3455752E+01    0.3769911E+01    0.4084071E+01    0.4398230E+01    0.4712389E+01    0.5026548E+01    0.5340708E+01    0.5654867E+01    0.5969026E+01    0.6283185E+01
  0.0000000E+00    0.3141593E+00    0.6283185E+00    0.9424778E+00    0.1256637E+01    0.1570796E+01    0.1884956E+01    0.2199115E+01    0.2513274E+01    0.2827433E+01
  0.3141593E+01    0.3455752E+01    0.3769911E+01    0.4084071E+01    0.4398230E+01    0.4712389E+01    0.5026548E+01    0.5340708E+01    0.5654867E+01    0.5969026E+01
  0.6283185E+01    0.0000000E+00    0.0000000E+00    0.0000000E+00    0.0000000E+00    0.0000000E+00    0.0000000E+00    0.0000000E+00    0.0000000E+00    0.0000000E+00
  0.0000000E+00    0.0000000E+00    0.0000000E+00    0.0000000E+00    0.0000000E+00    0.0000000E+00    0.0000000E+00    0.0000000E+00    0.0000000E+00    0.0000000E+00
  0.0000000E+00    0.0000000E+00    0.3141593E+00    0.3141593E+00    0.3141593E+00    0.3141593E+00    0.3141593E+00    0.3141593E+00    0.3141593E+00    0.3141593E+00
  0.3141593E+00    0.3141593E+00    0.3141593E+00    0.3141593E+00    0.3141593E+00    0.3141593E+00    0.3141593E+00    0.3141593E+00    0.3141593E+00    0.3141593E+00
  0.3141593E+00    0.3141593E+00    0.3141593E+00    0.6283185E+00    0.6283185E+00    0.6283185E+00    0.6283185E+00    0.6283185E+00    0.6283185E+00    0.6283185E+00
  0.6283185E+00    0.6283185E+00    0.6283185E+00    0.6283185E+00    0.6283185E+00    0.6283185E+00    0.6283185E+00    0.6283185E+00    0.6283185E+00    0.6283185E+00
  0.6283185E+00    0.6283185E+00    0.6283185E+00    0.6283185E+00    0.9424778E+00    0.9424778E+00    0.9424778E+00    0.9424778E+00    0.9424778E+00    0.9424778E+00
  0.9424778E+00    0.9424778E+00    0.9424778E+00    0.9424778E+00    0.9424778E+00    0.9424778E+00    0.9424778E+00    0.9424778E+00    0.9424778E+00    0.9424778E+00
  0.9424778E+00    0.9424778E+00    0.9424778E+00    0.9424778E+00    0.9424778E+00    0.1256637E+01    0.1256637E+01    0.1256637E+01    0.1256637E+01    0.1256637E+01
  0.1256637E+01    0.1256637E+01    0.1256637E+01    0.1256637E+01    0.1256637E+01    0.1256637E+01    0.1256637E+01    0.1256637E+01    0.1256637E+01    0.1256637E+01
  0.1256637E+01    0.1256637E+01    0.1256637E+01    0.1256637E+01    0.1256637E+01    0.1256637E+01    0.1570796E+01    0.1570796E+01    0.1570796E+01    0.1570796E+01
  0.1570796E+01    0.1570796E+01    0.1570796E+01    0.1570796E+01    0.1570796E+01    0.1570796E+01    0.1570796E+01    0.1570796E+01    0.1570796E+01    0.1570796E+01
  0.1570796E+01    0.1570796E+01    0.1570796E+01    0.1570796E+01    0.1570796E+01    0.1570796E+01    0.1570796E+01    0.1884956E+01    0.1884956E+01    0.1884956E+01
  0.1884956E+01    0.1884956E+01    0.1884956E+01    0.1884956E+01    0.1884956E+01    0.1884956E+01    0.1884956E+01    0.1884956E+01    0.1884956E+01    0.1884956E+01
  0.1884956E+01    0.1884956E+01    0.1884956E+01    0.1884956E+01    0.1884956E+01    0.1884956E+01    0.1884956E+01    0.1884956E+01    0.2199115E+01    0.2199115E+01
  0.2199115E+01    0.2199115E+01    0.2199115E+01    0.2199115E+01    0.2199115E+01    0.2199115E+01    0.2199115E+01    0.2199115E+01    0.2199115E+01    0.2199115E+01
  0.2199115E+01    0.2199115E+01    0.2199115E+01    0.2199115E+01    0.2199115E+01    0.2199115E+01    0.2199115E+01    0.2199115E+01    0.2199115E+01    0.2513274E+01
  0.2513274E+01    0.2513274E+01    0.2513274E+01    0.2513274E+01    0.2513274E+01    0.2513274E+01    0.2513274E+01    0.2513274E+01    0.2513274E+01    0.2513274E+01
  0.2513274E+01    0.2513274E+01    0.2513274E+01    0.2513274E+01    0.2513274E+01    0.2513274E+01    0.2513274E+01    0.2513274E+01    0.2513274E+01    0.2513274E+01
  0.2827433E+01    0.2827433E+01    0.2827433E+01    0.2827433E+01    0.2827433E+01    0.2827433E+01    0.2827433E+01    0.2827433E+01    0.2827433E+01    0.2827433E+01
  0.2827433E+01    0.2827433E+01    0.2827433E+01    0.2827433E+01    0.2827433E+01    0.2827433E+01    0.2827433E+01    0.2827433E+01    0.2827433E+01    0.2827433E+01
  0.2827433E+01    0.3141593E+01    0.3141593E+01    0.3141593E+01    0.3141593E+01    0.3141593E+01    0.3141593E+01    0.3141593E+01    0.3141593E+01    0.3141593E+01
  0.3141593E+01    0.3141593E+01    0.3141593E+01    0.3141593E+01    0.3141593E+01    0.3141593E+01    0.3141593E+01    0.3141593E+01    0.3141593E+01    0.3141593E+01
  0.3141593E+01    0.3141593E+01    0.3455752E+01    0.3455752E+01    0.3455752E+01    0.3455752E+01    0.3455752E+01    0.3455752E+01    0.3455752E+01    0.3455752E+01
  0.3455752E+01    0.3455752E+01    0.3455752E+01    0.3455752E+01    0.3455752E+01    0.3455752E+01    0.3455752E+01    0.3455752E+01    0.3455752E+01    0.3455752E+01
  0.3455752E+01    0.3455752E+01    0.3455752E+01    0.3769911E+01    0.3769911E+01    0.3769911E+01    0.3769911E+01    0.3769911E+01    0.3769911E+01    0.3769911E+01
  0.3769911E+01    0.3769911E+01    0.3769911E+01    0.3769911E+01    0.3769911E+01    0.3769911E+01    0.3769911E+01    0.3769911E+01    0.3769911E+01    0.3769911E+01
  0.3769911E+01    0.3769911E+01    0.3769911E+01    0.3769911E+01    0.4084071E+01    0.4084071E+01    0.4084071E+01    0.4084071E+01    0.4084071E+01    0.4084071E+01
  0.4084071E+01    0.4084071E+01    0.4084071E+01    0.4084071E+01    0.4084071E+01    0.4084071E+01    0.4084071E+01    0.4084071E+01    0.4084071E+01    0.4084071E+01
  0.4084071E+01    0.4084071E+01    0.4084071E+01    0.4084071E+01    0.4084071E+01    0.4398230E+01    0.4398230E+01    0.4398230E+01    0.4398230E+01    0.4398230E+01
  0.4398230E+01    0.4398230E+01    0.4398230E+01    0.4398230E+01    0.4398230E+01    0.4398230E+01    0.4398230E+01    0.4398230E+01    0.4398230E+01    0.4398230E+01
  0.4398230E+01    0.4398230E+01    0.4398230E+01    0.4398230E+01    0.4398230E+01    0.4398230E+01    0.4712389E+01    0.4712389E+01    0.4712389E+01    0.4712389E+01
  0.4712389E+01    0.4712389E+01    0.4712389E+01    0.4712389E+01    0.4712389E+01    0.4712389E+01    0.4712389E+01    0.4712389E+01    0.4712389E+01    0.4712389E+01
  0.4712389E+01    0.4712389E+01    0.4712389E+01    0.4712389E+01    0.4712389E+01    0.4712389E+01    0.4712389E+01    0.5026548E+01    0.5026548E+01    0.5026548E+01
  0.5026548E+01    0.5026548E+01    0.5026548E+01    0.5026548E+01    0.5026548E+01    0.5026548E+01    0.5026548E+01    0.5026548E+01    0.5026548E+01    0.5026548E+01
  0.5026548E+01    0.5026548E+01    0.5026548E+01    0.5026548E+01    0.5026548E+01    0.5026548E+01    0.5026548E+01    0.5026548E+01    0.5340708E+01    0.5340708E+01
  0.5340708E+01    0.5340708E+01    0.5340708E+01    0.5340708E+01    0.5340708E+01    0.5340708E+01    0.5340708E+01    0.5340708E+01    0.5340708E+01    0.5340708E+01
  0.5340708E+01    0.5340708E+01    0.5340708E+01    0.5340708E+01    0.5340708E+01    0.5340708E+01    0.5340708E+01    0.5340708E+01    0.5340708E+01    0.5654867E+01
  0.5654867E+01    0.5654867E+01    0.5654867E+01    0.5654867E+01    0.5654867E+01    0.5654867E+01    0.5654867E+01    0.5654867E+01    0.5654867E+01    0.5654867E+01
  0.5654867E+01    0.5654867E+01    0.5654867E+01    0.5654867E+01    0.5654867E+01    0.5654867E+01    0.5654867E+01    0.5654867E+01    0.5654867E+01    0.5654867E+01
  0.5969026E+01    0.5969026E+01    0.5969026E+01    0.5969026E+01    0.5969026E+01    0.5969026E+01    0.5969026E+01    0.5969026E+01    0.5969026E+01    0.5969026E+01
  0.5969026E+01    0.5969026E+01    0.5969026E+01    0.5969026E+01    0.5969026E+01    0.5969026E+01    0.5969026E+01    0.5969026E+01    0.5969026E+01    0.5969026E+01
  0.5969026E+01    0.6283185E+01    0.6283185E+01    0.6283185E+01    0.6283185E+01    0.6283185E+01    0.6283185E+01    0.6283185E+01    0.6283185E+01    0.6283185E+01
  0.6283185E+01    0.6283185E+01    0.6283185E+01    0.6283185E+01    0.6283185E+01    0.6283185E+01    0.6283185E+01    0.6283185E+01    0.6283185E+01    0.6283185E+01
  0.6283185E+01    0.6283185E+01   -0.4203355E-01   -0.3791802E-01   -0.3009010E-01   -0.1931630E-01   -0.6651023E-02    0.6667053E-02    0.1933505E-01    0.3011419E-01
  0.3794792E-01    0.4203675E-01    0.4201036E-01    0.3790221E-01    0.3008151E-01    0.1931191E-01    0.6650178E-02   -0.6664565E-02   -0.1932861E-01   -0.3010024E-01
 -0.3792659E-01   -0.4204218E-01   -0.1219872E+00   -0.1100445E+00   -0.8732861E-01   -0.5606300E-01   -0.1930772E-01    0.1934016E-01    0.5609773E-01    0.8736574E-01
  0.1100777E+00    0.1219956E+00    0.1219712E+00    0.1100261E+00    0.8731508E-01    0.5605564E-01    0.1930722E-01   -0.1933352E-01   -0.5608373E-01   -0.8734471E-01
 -0.1100572E+00   -0.1219979E+00   -0.1900002E+00   -0.1713992E+00   -0.1360189E+00   -0.8732212E-01   -0.3007541E-01    0.3011789E-01    0.8736502E-01    0.1360600E+00
  0.1714314E+00    0.1900118E+00    0.1899921E+00    0.1713843E+00    0.1360055E+00    0.8731424E-01    0.3007515E-01   -0.3010985E-01   -0.8734944E-01   -0.1360399E+00
 -0.1714154E+00   -0.1900129E+00   -0.2394159E+00   -0.2159769E+00   -0.1713952E+00   -0.1100343E+00   -0.3790048E-01    0.3794544E-01    0.1100780E+00    0.1714344E+00
  0.2160057E+00    0.2394275E+00    0.2394120E+00    0.2159662E+00    0.1713840E+00    0.1100272E+00    0.3789999E-01   -0.3793851E-01   -0.1100650E+00   -0.1714189E+00
 -0.2159947E+00   -0.2394288E+00   -0.2653950E+00   -0.2394129E+00   -0.1899943E+00   -0.1219760E+00   -0.4201618E-01    0.4205796E-01    0.1220156E+00    0.1900285E+00
  0.2394375E+00    0.2654056E+00    0.2653937E+00    0.2394057E+00    0.1899856E+00    0.1219698E+00    0.4201499E-01   -0.4205350E-01   -0.1220067E+00   -0.1900183E+00
 -0.2394309E+00   -0.2654072E+00   -0.2653948E+00   -0.2394132E+00   -0.1899951E+00   -0.1219776E+00   -0.4201872E-01    0.4205419E-01    0.1220107E+00    0.1900231E+00
  0.2394330E+00    0.2654038E+00    0.2653948E+00    0.2394083E+00    0.1899885E+00    0.1219721E+00    0.4201658E-01   -0.4205245E-01   -0.1220061E+00   -0.1900181E+00
 -0.2394308E+00   -0.2654076E+00   -0.2394167E+00   -0.2159781E+00   -0.1713974E+00   -0.1100384E+00   -0.3790712E-01    0.3793534E-01    0.1100644E+00    0.1714189E+00
  0.2159927E+00    0.2394226E+00    0.2394159E+00    0.2159741E+00    0.1713920E+00    0.1100334E+00    0.3790421E-01   -0.3793594E-01   -0.1100635E+00   -0.1714181E+00
 -0.2159942E+00   -0.2394285E+00   -0.1900012E+00   -0.1714004E+00   -0.1360212E+00   -0.8732668E-01   -0.3008346E-01    0.3010487E-01    0.8734622E-01    0.1360371E+00
  0.1714110E+00    0.1900054E+00    0.1900005E+00    0.1713973E+00    0.1360168E+00    0.8732238E-01    0.3008013E-01   -0.3010707E-01   -0.8734778E-01   -0.1360390E+00
 -0.1714146E+00   -0.1900115E+00   -0.1219860E+00   -0.1100439E+00   -0.8732926E-01   -0.5606568E-01   -0.1931363E-01    0.1932918E-01    0.5607985E-01    0.8734069E-01
  0.1100516E+00    0.1219895E+00    0.1219860E+00    0.1100418E+00    0.8732599E-01    0.5606207E-01    0.1931025E-01   -0.1933218E-01   -0.5608290E-01   -0.8734446E-01
 -0.1100568E+00   -0.1219969E+00   -0.4203113E-01   -0.3791555E-01   -0.3008833E-01   -0.1931568E-01   -0.6652078E-02    0.6662811E-02    0.1932536E-01    0.3009600E-01
  0.3792046E-01    0.4203270E-01    0.4203032E-01    0.3791379E-01    0.3008584E-01    0.1931275E-01    0.6649042E-02   -0.6666043E-02   -0.1932918E-01   -0.3010072E-01
 -0.3792661E-01   -0.4204080E-01    0.4203977E-01    0.3792529E-01    0.3009865E-01    0.1932591E-01    0.6661565E-02   -0.6654835E-02   -0.1931989E-01   -0.3009385E-01
 -0.3792214E-01   -0.4203851E-01   -0.4203988E-01   -0.3792621E-01   -0.3010022E-01   -0.1932795E-01   -0.6664059E-02    0.6651698E-02    0.1931596E-01    0.3008895E-01
  0.3791615E-01    0.4203165E-01    0.1219964E+00    0.1100544E+00    0.8733993E-01    0.5607632E-01    0.1932365E-01   -0.1932050E-01   -0.5607343E-01   -0.8733757E-01
 -0.1100525E+00   -0.1219947E+00   -0.1219953E+00   -0.1100542E+00   -0.8734044E-01   -0.5607749E-01   -0.1932561E-01    0.1931768E-01    0.5606950E-01    0.8733244E-01
  0.1100463E+00    0.1219875E+00    0.1900096E+00    0.1714101E+00    0.1360318E+00    0.8733777E-01    0.3009444E-01   -0.3009473E-01   -0.8733808E-01   -0.1360321E+00
 -0.1714102E+00   -0.1900094E+00   -0.1900093E+00   -0.1714097E+00   -0.1360317E+00   -0.8733826E-01   -0.3009584E-01    0.3009207E-01    0.8733394E-01    0.1360267E+00
  0.1714036E+00    0.1900017E+00    0.2394250E+00    0.2159878E+00    0.1714084E+00    0.1100502E+00    0.3791944E-01   -0.3792321E-01   -0.1100537E+00   -0.1714111E+00
 -0.2159894E+00   -0.2394251E+00   -0.2394239E+00   -0.2159866E+00   -0.1714073E+00   -0.1100499E+00   -0.3792044E-01    0.3792049E-01    0.1100493E+00    0.1714054E+00
  0.2159830E+00    0.2394188E+00    0.2654049E+00    0.2394237E+00    0.1900065E+00    0.1219902E+00    0.4203247E-01   -0.4203980E-01   -0.1219969E+00   -0.1900118E+00
 -0.2394267E+00   -0.2654043E+00   -0.2654024E+00   -0.2394213E+00   -0.1900043E+00   -0.1219891E+00   -0.4203327E-01    0.4203686E-01    0.1219918E+00    0.1900051E+00
  0.2394195E+00    0.2653973E+00    0.2654026E+00    0.2394222E+00    0.1900052E+00    0.1219888E+00    0.4203089E-01   -0.4204157E-01   -0.1219987E+00   -0.1900135E+00
 -0.2394276E+00   -0.2654044E+00   -0.2654015E+00   -0.2394195E+00   -0.1900023E+00   -0.1219872E+00   -0.4203151E-01    0.4203804E-01    0.1219924E+00    0.1900054E+00
  0.2394189E+00    0.2653959E+00    0.2394231E+00    0.2159855E+00    0.1714055E+00    0.1100467E+00    0.3791517E-01   -0.3792816E-01   -0.1100589E+00   -0.1714157E+00
 -0.2159923E+00   -0.2394252E+00   -0.2394213E+00   -0.2159818E+00   -0.1714015E+00   -0.1100442E+00   -0.3791574E-01    0.3792392E-01    0.1100514E+00    0.1714064E+00
  0.2159831E+00    0.2394184E+00    0.1900089E+00    0.1714076E+00    0.1360280E+00    0.8733295E-01    0.3008856E-01   -0.3010163E-01   -0.8734528E-01   -0.1360385E+00
 -0.1714141E+00   -0.1900095E+00   -0.1900052E+00   -0.1714026E+00   -0.1360231E+00   -0.8732998E-01   -0.3008918E-01    0.3009706E-01    0.8733700E-01    0.1360278E+00
  0.1714038E+00    0.1900014E+00    0.1219913E+00    0.1100497E+00    0.8733523E-01    0.5607123E-01    0.1931782E-01   -0.1932708E-01   -0.5608012E-01   -0.8734312E-01
 -0.1100554E+00   -0.1219943E+00   -0.1219913E+00   -0.1100469E+00   -0.8733140E-01   -0.5606879E-01   -0.1931849E-01    0.1932284E-01    0.5607240E-01    0.8733306E-01
  0.1100450E+00    0.1219841E+00    0.4203511E-01    0.3792103E-01    0.3009474E-01    0.1932235E-01    0.6658181E-02   -0.6657850E-02   -0.1932148E-01   -0.3009288E-01
 -0.3791844E-01   -0.4203688E-01   -0.4204031E-01   -0.3792359E-01   -0.3009477E-01   -0.1932191E-01   -0.6659072E-02    0.6655709E-02    0.1931834E-01    0.3008927E-01
  0.3791574E-01    0.4203070E-01    0.4204289E-01    0.1219999E+00    0.1900158E+00    0.2394309E+00    0.2654083E+00    0.2654027E+00    0.2394096E+00    0.1899684E+00
  0.1219066E+00    0.4186011E-01   -0.4212854E-01   -0.1220401E+00   -0.1900307E+00   -0.2394301E+00   -0.2653985E+00   -0.2653951E+00   -0.2394126E+00   -0.1899940E+00
 -0.1219826E+00   -0.4202793E-01    0.3792734E-01    0.1100571E+00    0.1714147E+00    0.2159925E+00    0.2394261E+00    0.2394190E+00    0.2159677E+00    0.1713631E+00
  0.1099663E+00    0.3779363E-01   -0.3801131E-01   -0.1101039E+00   -0.1714354E+00   -0.2159965E+00   -0.2394217E+00   -0.2394166E+00   -0.2159770E+00   -0.1713967E+00
 -0.1100412E+00   -0.3791309E-01    0.3009948E-01    0.8734140E-01    0.1360343E+00    0.1714107E+00    0.1900060E+00    0.1899979E+00    0.1713841E+00    0.1359838E+00
  0.8726236E-01    0.2999927E-01   -0.3017281E-01   -0.8738930E-01   -0.1360601E+00   -0.1714212E+00   -0.1900094E+00   -0.1900032E+00   -0.1714006E+00   -0.1360214E+00
 -0.8732864E-01   -0.3008748E-01    0.1932493E-01    0.5607590E-01    0.8733787E-01    0.1100496E+00    0.1219865E+00    0.1219783E+00    0.1100240E+00    0.8729252E-01
  0.5601099E-01    0.1924843E-01   -0.1938683E-01   -0.5612151E-01   -0.8736687E-01   -0.1100664E+00   -0.1219977E+00   -0.1219914E+00   -0.1100465E+00   -0.8733091E-01
 -0.5606784E-01   -0.1931682E-01    0.6658454E-02    0.1932121E-01    0.3009220E-01    0.3791615E-01    0.4202616E-01    0.4201865E-01    0.3789331E-01    0.3005388E-01
  0.1926951E-01    0.6599916E-02   -0.6710977E-02   -0.1936340E-01   -0.3012281E-01   -0.3793790E-01   -0.4204396E-01   -0.4203825E-01   -0.3792006E-01   -0.3009167E-01
 -0.1931882E-01   -0.6655548E-02   -0.6659353E-02   -0.1932447E-01   -0.3009884E-01   -0.3792848E-01   -0.4204781E-01   -0.4205432E-01   -0.3794785E-01   -0.3013016E-01
 -0.1936517E-01   -0.6704385E-02    0.6614298E-02    0.1928590E-01    0.3006792E-01    0.3790346E-01    0.4202520E-01    0.4203014E-01    0.3791848E-01    0.3009342E-01
  0.1932145E-01    0.6657175E-02   -0.1932542E-01   -0.5607858E-01   -0.8734352E-01   -0.1100604E+00   -0.1220060E+00   -0.1220114E+00   -0.1100763E+00   -0.8736865E-01
 -0.5611031E-01   -0.1935999E-01    0.1928559E-01    0.5604297E-01    0.8731282E-01    0.1100334E+00    0.1219803E+00    0.1219843E+00    0.1100455E+00    0.8733312E-01
  0.5607072E-01    0.1931867E-01   -0.3010002E-01   -0.8734344E-01   -0.1360385E+00   -0.1714190E+00   -0.1900219E+00   -0.1900263E+00   -0.1714319E+00   -0.1360585E+00
 -0.8736815E-01   -0.3012648E-01    0.3006367E-01    0.8731001E-01    0.1360082E+00    0.1713910E+00    0.1899943E+00    0.1899975E+00    0.1714005E+00    0.1360241E+00
  0.8733141E-01    0.3008905E-01   -0.3792784E-01   -0.1100584E+00   -0.1714172E+00   -0.2159983E+00   -0.2394378E+00   -0.2394414E+00   -0.2160087E+00   -0.1714333E+00
 -0.1100781E+00   -0.3794873E-01    0.3789435E-01    0.1100269E+00    0.1713877E+00    0.2159699E+00    0.2394095E+00    0.2394120E+00    0.2159774E+00    0.1714000E+00
  0.1100435E+00    0.3791393E-01   -0.4204347E-01   -0.1220006E+00   -0.1900169E+00   -0.2394348E+00   -0.2654169E+00   -0.2654199E+00   -0.2394435E+00   -0.1900301E+00
 -0.1220166E+00   -0.4206040E-01    0.4201179E-01    0.1219703E+00    0.1899880E+00    0.2394065E+00    0.2653885E+00    0.2653905E+00    0.2394126E+00    0.1899980E+00
  0.1219838E+00    0.4202772E-01   -0.4204419E-01   -0.1220010E+00   -0.1900171E+00   -0.2394347E+00   -0.2654164E+00   -0.2654189E+00   -0.2394420E+00   -0.1900282E+00
 -0.1220145E+00   -0.4205841E-01    0.4201355E-01    0.1219716E+00    0.1899886E+00    0.2394067E+00    0.2653882E+00    0.2653900E+00    0.2394121E+00    0.1899973E+00
  0.1219830E+00    0.4202713E-01   -0.3792919E-01   -0.1100593E+00   -0.1714175E+00   -0.2159977E+00   -0.2394362E+00   -0.2394385E+00   -0.2160044E+00   -0.1714277E+00
 -0.1100718E+00   -0.3794247E-01    0.3789970E-01    0.1100307E+00    0.1713898E+00    0.2159705E+00    0.2394088E+00    0.2394105E+00    0.2159755E+00    0.1713979E+00
  0.1100415E+00    0.3791211E-01   -0.3010209E-01   -0.8734494E-01   -0.1360392E+00   -0.1714184E+00   -0.1900195E+00   -0.1900217E+00   -0.1714248E+00   -0.1360492E+00
 -0.8735728E-01   -0.3011551E-01    0.3007306E-01    0.8731678E-01    0.1360119E+00    0.1713918E+00    0.1899932E+00    0.1899950E+00    0.1713972E+00    0.1360206E+00
  0.8732805E-01    0.3008604E-01   -0.1932915E-01   -0.5608132E-01   -0.8734512E-01   -0.1100604E+00   -0.1220036E+00   -0.1220059E+00   -0.1100670E+00   -0.8735551E-01
 -0.5609446E-01   -0.1934361E-01    0.1929988E-01    0.5605309E-01    0.8731823E-01    0.1100347E+00    0.1219786E+00    0.1219806E+00    0.1100409E+00    0.8732817E-01
  0.5606585E-01    0.1931440E-01   -0.6663843E-02   -0.1932811E-01   -0.3010143E-01   -0.3792936E-01   -0.4204595E-01   -0.4204846E-01   -0.3793673E-01   -0.3011325E-01
 -0.1934350E-01   -0.6681137E-02    0.6634498E-02    0.1929998E-01    0.3007530E-01    0.3790512E-01    0.4202283E-01    0.4202543E-01    0.3791254E-01    0.3008701E-01
  0.1931521E-01    0.6651483E-02    0.6653081E-02    0.1931642E-01    0.3008820E-01    0.3791372E-01    0.4202656E-01    0.4202378E-01    0.3790527E-01    0.3007430E-01
  0.1929801E-01    0.6631893E-02   -0.6683573E-02   -0.1934499E-01   -0.3011378E-01   -0.3793631E-01   -0.4204714E-01   -0.4204418E-01   -0.3792735E-01   -0.3009926E-01
 -0.1932620E-01   -0.6662234E-02    0.1931792E-01    0.5606948E-01    0.8733203E-01    0.1100450E+00    0.1219846E+00    0.1219815E+00    0.1100353E+00    0.8731577E-01
  0.5604732E-01    0.1929217E-01   -0.1935071E-01   -0.5609923E-01   -0.8735714E-01   -0.1100654E+00   -0.1220021E+00   -0.1219987E+00   -0.1100547E+00   -0.8733959E-01
 -0.5607633E-01   -0.1932433E-01    0.3009239E-01    0.8733426E-01    0.1360271E+00    0.1714041E+00    0.1900016E+00    0.1899981E+00    0.1713932E+00    0.1360081E+00
  0.8730736E-01    0.3006059E-01   -0.3012716E-01   -0.8736487E-01   -0.1360512E+00   -0.1714216E+00   -0.1900152E+00   -0.1900113E+00   -0.1714094E+00   -0.1360308E+00
 -0.8733772E-01   -0.3009559E-01    0.3792027E-01    0.1100492E+00    0.1714061E+00    0.2159842E+00    0.2394193E+00    0.2394156E+00    0.2159725E+00    0.1713849E+00
  0.1100185E+00    0.3788372E-01   -0.3795768E-01   -0.1100812E+00   -0.1714297E+00   -0.2159990E+00   -0.2394288E+00   -0.2394251E+00   -0.2159853E+00   -0.1714061E+00
 -0.1100502E+00   -0.3792016E-01    0.4203453E-01    0.1219905E+00    0.1900054E+00    0.2394210E+00    0.2653999E+00    0.2653958E+00    0.2394087E+00    0.1899830E+00
  0.1219582E+00    0.4200119E-01   -0.4207461E-01   -0.1220253E+00   -0.1900302E+00   -0.2394339E+00   -0.2654068E+00   -0.2654035E+00   -0.2394191E+00   -0.1900037E+00
 -0.1219913E+00   -0.4203302E-01   -0.2947962E-02    0.2111073E-03    0.5318971E-02    0.1037516E-01    0.1356965E-01    0.1359280E-01    0.1038394E-01    0.5308507E-02
  0.1576322E-03   -0.3309421E-02   -0.2899272E-02    0.3967352E-03    0.5366298E-02    0.1061876E-01    0.1383770E-01    0.1361008E-01    0.1062543E-01    0.5589738E-02
  0.1579674E-03   -0.2819398E-02    0.2428782E-03    0.3414118E-02    0.8514840E-02    0.1359221E-01    0.1677092E-01    0.1677196E-01    0.1358277E-01    0.8490522E-02
  0.3348727E-02    0.8352761E-04    0.2719434E-03    0.3530180E-02    0.8539111E-02    0.1376416E-01    0.1696710E-01    0.1679159E-01    0.1376035E-01    0.8700379E-02
  0.3348475E-02    0.3133218E-03    0.5364501E-02    0.8535273E-02    0.1366549E-01    0.1874829E-01    0.2189872E-01    0.2192403E-01    0.1873358E-01    0.1362094E-01
  0.8534401E-02    0.5300223E-02    0.5385350E-02    0.8655763E-02    0.1367105E-01    0.1883490E-01    0.2208858E-01    0.2192697E-01    0.1881136E-01    0.1382279E-01
  0.8488644E-02    0.5336701E-02    0.1042018E-01    0.1361347E-01    0.1874790E-01    0.2381711E-01    0.2699745E-01    0.2702587E-01    0.2381129E-01    0.1874582E-01
  0.1367140E-01    0.1040754E-01    0.1050445E-01    0.1376024E-01    0.1873709E-01    0.2394002E-01    0.2718853E-01    0.2698373E-01    0.2392531E-01    0.1892677E-01