 TITLE = "NAVIER-STOKES OUTPUT"
 VARIABLES = "X", "Y", "U", "V", "P", "Pex", "Vor"
 ZONE I =   21, J =   21, DATAPACKING = BLOCK, VARLOCATION=(3=CELLCENTERED, 4=CELLCENTERED,5=CELLCENTERED,6=CELLCENTERED, 7=CELLCENTERED)
  0.0000000E+00    0.3141593E+00    0.6283185E+00    0.9424778E+00    0.1256637E+01    0.1570796E+01    0.1884956E+01    0.2199115E+01    0.2513274E+01    0.2827433E+01
  0.3141593E+01    0.3455752E+01    0.3769911E+01    0.4084071E+01    0.4398230E+01    0.4712389E+01    0.5026548E+01    0.5340708E+01    0.5654867E+01    0.5969026E+01
  0.6283185E+01    0.0000000E+00    0.3141593E+00    0.6283185E+00    0.9424778E+00    0.1256637E+01    0.1570796E+01    0.1884956E+01    0.2199115E+01    0.2513274E+01
  0.2827433E+01    0.3141593E+01    0.3455752E+01    0.3769911E+01    0.4084071E+01    0.4398230E+01    0.4712389E+01    0.5026548E+01    0.5340708E+01    0.5654867E+01
  0.5969026E+01    0.6283185E+01    0.0000000E+00    0.3141593E+00    0.6283185E+00    0.9424778E+00    0.1256637E+01    0.1570796E+01    0.1884956E+01    0.2199115E+01
  0.2513274E+01    0.2827433E+01    0.3141593E+01    0.3455752E+01    0.3769911E+01    0.4084071E+01    0.4398230E+01    0.4712389E+01    0.5026548E+01    0.5340708E+01
  0.5654867E+01    0.5969026E+01    0.6283185E+01    0.0000000E+00    0.3141593E+00    0.6283185E+00    0.9424778E+00    0.1256637E+01    0.1570796E+01    0.1884956E+01
  0.2199115E+01    0.2513274E+01    0.2827433E+01    0.3141593E+01    0.3455752E+01    0.3769911E+01    0.4084071E+01    0.4398230E+01    0.4712389E+01    0.5026548E+01
  0.5340708E+01    0.5654867E+01    0.5969026E+01    0.6283185E+01    0.0000000E+00    0.3141593E+00    0.6283185E+00    0.9424778E+00    0.1256637E+01    0.1570796E+01
  0.1884956E+01    0.2199115E+01    0.2513274E+01    0.2827433E+01    0.3141593E+01    0.3455752E+01    0.3769911E+01    0.4084071E+01    0.4398230E+01    0.4712389E+01
  0.5026548E+01    0.5340708E+01    0.5654867E+01    0.5969026E+01    0.6283185E+01    0.0000000E+00    0.3141593E+00    0.6283185E+00    0.9424778E+00    0.1256637E+01
  0.1570796E+01    0.1884956E+01    0.2199115E+01    0.2513274E+01    0.2827433E+01    0.3141593E+01    0.3455752E+01    0.3769911E+01    0.4084071E+01    0.4398230E+01
  0.4712389E+01    0.5026548E+01    0.5340708E+01    0.5654867E+01    0.5969026E+01    0.6283185E+01    0.0000000E+00    0.3141593E+00    0.6283185E+00    0.9424778E+00
  0.1256637E+01    0.1570796E+01    0.1884956E+01    0.2199115E+01    0.2513274E+01    0.2827433E+01    0.3141593E+01    0.3455752E+01    0.3769911E+01    0.4084071E+01
  0.4398230E+01    0.4712389E+01    0.5026548E+01    0.5340708E+01    0.5654867E+01    0.5969026E+01    0.6283185E+01    0.0000000E+00    0.3141593E+00    0.6283185E+00
  0.9424778E+00    0.1256637E+01    0.1570796E+01    0.1884956E+01    0.2199115E+01    0.2513274E+01    0.2827433E+01    0.3141593E+01    0.3455752E+01    0.3769911E+01
  0.4084071E+01    0.4398230E+01    0.4712389E+01    0.5026548E+01    0.5340708E+01    0.5654867E+01    0.5969026E+01    0.6283185E+01    0.0000000E+00    0.3141593E+00
  0.6283185E+00    0.9424778E+00    0.1256637E+01    0.1570796E+01    0.1884956E+01    0.2199115E+01    0.2513274E+01    0.2827433E+01    0.3141593E+01    0.3455752E+01
  0.3769911E+01    0.4084071E+01    0.4398230E+01    0.4712389E+01    0.5026548E+01    0.5340708E+01    0.5654867E+01    0.5969026E+01    0.6283185E+01    0.0000000E+00
  0.3141593E+00    0.6283185E+00    0.9424778E+00    0.1256637E+01    0.1570796E+01    0.1884956E+01    0.2199115E+01    0.2513274E+01    0.2827433E+01    0.3141593E+01
  0.3455752E+01    0.3769911E+01    0.4084071E+01    0.4398230E+01    0.4712389E+01    0.5026548E+01    0.5340708E+01    0.5654867E+01    0.5969026E+01    0.6283185E+01
  0.0000000E+00    0.3141593E+00    0.6283185E+00    0.9424778E+00    0.1256637E+01    0.1570796E+01    0.1884956E+01    0.2199115E+01    0.2513274E+01    0.2827433E+01
  0.3141593E+01    0.3455752E+01    0.3769911E+01    0.4084071E+01    0.4398230E+01    0.4712389E+01    0.5026548E+01    0.5340708E+01    0.5654867E+01    0.5969026E+01
  0.6283185E+01    0.0000000E+00    0.3141593E+00    0.6283185E+00    0.9424778E+00    0.1256637E+01    0.1570796E+01    0.1884956E+01    0.2199115E+01    0.2513274E+01
  0.2827433E+01    0.3141593E+01    0.3455752E+01    0.3769911E+01    0.4084071E+01    0.4398230E+01    0.4712389E+01    0.5026548E+01    0.5340708E+01    0.5654867E+01
  0.5969026E+01    0.6283185E+01    0.0000000E+00    0.3141593E+00    0.6283185E+00    0.9424778E+00    0.1256637E+01    0.1570796E+01    0.1884956E+01    0.2199115E+01
  0.2513274E+01    0.2827433E+01    0.3141593E+01    0.3455752E+01    0.3769911E+01    0.4084071E+01    0.4398230E+01    0.4712389E+01    0.5026548E+01    0.5340708E+01
  0.5654867E+01    0.5969026E+01    0.6283185E+01    0.0000000E+00    0.3141593E+00    0.6283185E+00    0.9424778E+00    0.1256637E+01    0.1570796E+01    0.1884956E+01
  0.2199115E+01    0.2513274E+01    0.2827433E+01    0.3141593E+01    0.3455752E+01    0.3769911E+01    0.4084071E+01    0.4398230E+01    0.4712389E+01    0.5026548E+01
  0.5340708E+01    0.5654867E+01    0.5969026E+01    0.6283185E+01    0.0000000E+00    0.3141593E+00    0.6283185E+00    0.9424778E+00    0.1256637E+01    0.1570796E+01
  0.1884956E+01    0.2199115E+01    0.2513274E+01    0.2827433E+01    0.3141593E+01    0.3455752E+01    0.3769911E+01    0.4084071E+01    0.4398230E+01    0.4712389E+01
  0.5026548E+01    0.5340708E+01    0.5654867E+01    0.5969026E+01    0.6283185E+01    0.0000000E+00    0.3141593E+00    0.6283185E+00    0.9424778E+00    0.1256637E+01
  0.1570796E+01    0.1884956E+01    0.2199115E+01    0.2513274E+01    0.2827433E+01    0.3141593E+01    0.3455752E+01    0.3769911E+01    0.4084071E+01    0.4398230E+01
  0.4712389E+01    0.5026548E+01    0.5340708E+01    0.5654867E+01    0.5969026E+01    0.6283185E+01    0.0000000E+00    0.3141593E+00    0.6283185E+00    0.9424778E+00
  0.1256637E+01    0.1570796E+01    0.1884956E+01    0.2199115E+01    0.2513274E+01    0.2827433E+01    0.3141593E+01    0.3455752E+01    0.3769911E+01    0.4084071E+01
  0.4398230E+01    0.4712389E+01    0.5026548E+01    0.5340708E+01    0.5654867E+01    0.5969026E+01    0.6283185E+01    0.0000000E+00    0.3141593E+00    0.6283185E+00
  0.9424778E+00    0.1256637E+01    0.1570796E+01    0.1884956E+01    0.2199115E+01    0.2513274E+01    0.2827433E+01    0.3141593E+01    0.3455752E+01    0.3769911E+01
  0.4084071E+01    0.4398230E+01    0.4712389E+01    0.5026548E+01    0.5340708E+01    0.5654867E+01    0.5969026E+01    0.6283185E+01    0.0000000E+00    0.3141593E+00
  0.6283185E+00    0.9424778E+00    0.1256637E+01    0.1570796E+01    0.1884956E+01    0.2199115E+01    0.2513274E+01    0.2827433E+01    0.3141593E+01    0.3455752E+01
  0.3769911E+01    0.4084071E+01    0.4398230E+01    0.4712389E+01    0.5026548E+01    0.5340708E+01    0.5654867E+01    0.5969026E+01    0.6283185E+01    0.0000000E+00
  0.3141593E+00    0.6283185E+00    0.9424778E+00    0.1256637E+01    0.1570796E+01    0.1884956E+01    0.2199115E+01    0.2513274E+01    0.2827433E+01    0.3141593E+01
  0.3455752E+01    0.3769911E+01    0.4084071E+01    0.4398230E+01    0.4712389E+01    0.5026548E+01    0.5340708E+01    0.5654867E+01    0.5969026E+01    0.6283185E+01
  0.0000000E+00    0.3141593E+00    0.6283185E+00    0.9424778E+00    0.1256637E+01    0.1570796E+01    0.1884956E+01    0.2199115E+01    0.2513274E+01    0.2827433E+01
  0.3141593E+01    0.3455752E+01    0.3769911E+01    0.4084071E+01    0.4398230E+01    0.4712389E+01    0.5026548E+01    0.5340708E+01    0.5654867E+01    0.5969026E+01
  0.6283185E+01    0.0000000E+00    0.0000000E+00    0.0000000E+00    0.0000000E+00    0.0000000E+00    0.0000000E+00    0.0000000E+00    0.0000000E+00    0.0000000E+00
  0.0000000E+00    0.0000000E+00    0.0000000E+00    0.0000000E+00    0.0000000E+00    0.0000000E+00    0.0000000E+00    0.0000000E+00    0.0000000E+00    0.0000000E+00
  0.0000000E+00    0.0000000E+00    0.3141593E+00    0.3141593E+00    0.3141593E+00    0.3141593E+00    0.3141593E+00    0.3141593E+00    0.3141593E+00    0.3141593E+00
  0.3141593E+00    0.3141593E+00    0.3141593E+00    0.3141593E+00    0.3141593E+00    0.3141593E+00    0.3141593E+00    0.3141593E+00    0.3141593E+00    0.3141593E+00
  0.3141593E+00    0.3141593E+00    0.3141593E+00    0.6283185E+00    0.6283185E+00    0.6283185E+00    0.6283185E+00    0.6283185E+00    0.6283185E+00    0.6283185E+00
  0.6283185E+00    0.6283185E+00    0.6283185E+00    0.6283185E+00    0.6283185E+00    0.6283185E+00    0.6283185E+00    0.6283185E+00    0.6283185E+00    0.6283185E+00
  0.6283185E+00    0.6283185E+00    0.6283185E+00    0.6283185E+00    0.9424778E+00    0.9424778E+00    0.9424778E+00    0.9424778E+00    0.9424778E+00    0.9424778E+00
  0.9424778E+00    0.9424778E+00    0.9424778E+00    0.9424778E+00    0.9424778E+00    0.9424778E+00    0.9424778E+00    0.9424778E+00    0.9424778E+00    0.9424778E+00
  0.9424778E+00    0.9424778E+00    0.9424778E+00    0.9424778E+00    0.9424778E+00    0.1256637E+01    0.1256637E+01    0.1256637E+01    0.1256637E+01    0.1256637E+01
  0.1256637E+01    0.1256637E+01    0.1256637E+01    0.1256637E+01    0.1256637E+01    0.1256637E+01    0.1256637E+01    0.1256637E+01    0.1256637E+01    0.1256637E+01
  0.1256637E+01    0.1256637E+01    0.1256637E+01    0.1256637E+01    0.1256637E+01    0.1256637E+01    0.1570796E+01    0.1570796E+01    0.1570796E+01    0.1570796E+01
  0.1570796E+01    0.1570796E+01    0.1570796E+01    0.1570796E+01    0.1570796E+01    0.1570796E+01    0.1570796E+01    0.1570796E+01    0.1570796E+01    0.1570796E+01
  0.1570796E+01    0.1570796E+01    0.1570796E+01    0.1570796E+01    0.1570796E+01    0.1570796E+01    0.1570796E+01    0.1884956E+01    0.1884956E+01    0.1884956E+01
  0.1884956E+01    0.1884956E+01    0.1884956E+01    0.1884956E+01    0.1884956E+01    0.1884956E+01    0.1884956E+01    0.1884956E+01    0.1884956E+01    0.1884956E+01
  0.1884956E+01    0.1884956E+01    0.1884956E+01    0.1884956E+01    0.1884956E+01    0.1884956E+01    0.1884956E+01    0.1884956E+01    0.2199115E+01    0.2199115E+01
  0.2199115E+01    0.2199115E+01    0.2199115E+01    0.2199115E+01    0.2199115E+01    0.2199115E+01    0.2199115E+01    0.2199115E+01    0.2199115E+01    0.2199115E+01
  0.2199115E+01    0.2199115E+01    0.2199115E+01    0.2199115E+01    0.2199115E+01    0.2199115E+01    0.2199115E+01    0.2199115E+01    0.2199115E+01    0.2513274E+01
  0.2513274E+01    0.2513274E+01    0.2513274E+01    0.2513274E+01    0.2513274E+01    0.2513274E+01    0.2513274E+01    0.2513274E+01    0.2513274E+01    0.2513274E+01
  0.2513274E+01    0.2513274E+01    0.2513274E+01    0.2513274E+01    0.2513274E+01    0.2513274E+01    0.2513274E+01    0.2513274E+01    0.2513274E+01    0.2513274E+01
  0.2827433E+01    0.2827433E+01    0.2827433E+01    0.2827433E+01    0.2827433E+01    0.2827433E+01    0.2827433E+01    0.2827433E+01    0.2827433E+01    0.2827433E+01
  0.2827433E+01    0.2827433E+01    0.2827433E+01    0.2827433E+01    0.2827433E+01    0.2827433E+01    0.2827433E+01    0.2827433E+01    0.2827433E+01    0.2827433E+01
  0.2827433E+01    0.3141593E+01    0.3141593E+01    0.3141593E+01    0.3141593E+01    0.3141593E+01    0.3141593E+01    0.3141593E+01    0.3141593E+01    0.3141593E+01
  0.3141593E+01    0.3141593E+01    0.3141593E+01    0.3141593E+01    0.3141593E+01    0.3141593E+01    0.3141593E+01    0.3141593E+01    0.3141593E+01    0.3141593E+01
  0.3141593E+01    0.3141593E+01    0.3455752E+01    0.3455752E+01    0.3455752E+01    0.3455752E+01    0.3455752E+01    0.3455752E+01    0.3455752E+01    0.3455752E+01
  0.3455752E+01    0.3455752E+01    0.3455752E+01    0.3455752E+01    0.3455752E+01    0.3455752E+01    0.3455752E+01    0.3455752E+01    0.3455752E+01    0.3455752E+01
  0.3455752E+01    0.3455752E+01    0.3455752E+01    0.3769911E+01    0.3769911E+01    0.3769911E+01    0.3769911E+01    0.3769911E+01    0.3769911E+01    0.3769911E+01
  0.3769911E+01    0.3769911E+01    0.3769911E+01    0.3769911E+01    0.3769911E+01    0.3769911E+01    0.3769911E+01    0.3769911E+01    0.3769911E+01    0.3769911E+01
  0.3769911E+01    0.3769911E+01    0.3769911E+01    0.3769911E+01    0.4084071E+01    0.4084071E+01    0.4084071E+01    0.4084071E+01    0.4084071E+01    0.4084071E+01
  0.4084071E+01    0.4084071E+01    0.4084071E+01    0.4084071E+01    0.4084071E+01    0.4084071E+01    0.4084071E+01    0.4084071E+01    0.4084071E+01    0.4084071E+01
  0.4084071E+01    0.4084071E+01    0.4084071E+01    0.4084071E+01    0.4084071E+01    0.4398230E+01    0.4398230E+01    0.4398230E+01    0.4398230E+01    0.4398230E+01
  0.4398230E+01    0.4398230E+01    0.4398230E+01    0.4398230E+01    0.4398230E+01    0.4398230E+01    0.4398230E+01    0.4398230E+01    0.4398230E+01    0.4398230E+01
  0.4398230E+01    0.4398230E+01    0.4398230E+01    0.4398230E+01    0.4398230E+01    0.4398230E+01    0.4712389E+01    0.4712389E+01    0.4712389E+01    0.4712389E+01
  0.4712389E+01    0.4712389E+01    0.4712389E+01    0.4712389E+01    0.4712389E+01    0.4712389E+01    0.4712389E+01    0.4712389E+01    0.4712389E+01    0.4712389E+01
  0.4712389E+01    0.4712389E+01    0.4712389E+01    0.4712389E+01    0.4712389E+01    0.4712389E+01    0.4712389E+01    0.5026548E+01    0.5026548E+01    0.5026548E+01
  0.5026548E+01    0.5026548E+01    0.5026548E+01    0.5026548E+01    0.5026548E+01    0.5026548E+01    0.5026548E+01    0.5026548E+01    0.5026548E+01    0.5026548E+01
  0.5026548E+01    0.5026548E+01    0.5026548E+01    0.5026548E+01    0.5026548E+01    0.5026548E+01    0.5026548E+01    0.5026548E+01    0.5340708E+01    0.5340708E+01
  0.5340708E+01    0.5340708E+01    0.5340708E+01    0.5340708E+01    0.5340708E+01    0.5340708E+01    0.5340708E+01    0.5340708E+01    0.5340708E+01    0.5340708E+01
  0.5340708E+01    0.5340708E+01    0.5340708E+01    0.5340708E+01    0.5340708E+01    0.5340708E+01    0.5340708E+01    0.5340708E+01    0.5340708E+01    0.5654867E+01
  0.5654867E+01    0.5654867E+01    0.5654867E+01    0.5654867E+01    0.5654867E+01    0.5654867E+01    0.5654867E+01    0.5654867E+01    0.5654867E+01    0.5654867E+01
  0.5654867E+01    0.5654867E+01    0.5654867E+01    0.5654867E+01    0.5654867E+01    0.5654867E+01    0.5654867E+01    0.5654867E+01    0.5654867E+01    0.5654867E+01
  0.5969026E+01    0.5969026E+01    0.5969026E+01    0.5969026E+01    0.5969026E+01    0.5969026E+01    0.5969026E+01    0.5969026E+01    0.5969026E+01    0.5969026E+01
  0.5969026E+01    0.5969026E+01    0.5969026E+01    0.5969026E+01    0.5969026E+01    0.5969026E+01    0.5969026E+01    0.5969026E+01    0.5969026E+01    0.5969026E+01
  0.5969026E+01    0.6283185E+01    0.6283185E+01    0.6283185E+01    0.6283185E+01    0.6283185E+01    0.6283185E+01    0.6283185E+01    0.6283185E+01    0.6283185E+01
  0.6283185E+01    0.6283185E+01    0.6283185E+01    0.6283185E+01    0.6283185E+01    0.6283185E+01    0.6283185E+01    0.6283185E+01    0.6283185E+01    0.6283185E+01
  0.6283185E+01    0.6283185E+01   -0.2827019E-01   -0.2550322E-01   -0.2023991E-01   -0.1299527E-01   -0.4478244E-02    0.4477338E-02    0.1299527E-01    0.2024234E-01
  0.2550902E-01    0.2827034E-01    0.2826434E-01    0.2549964E-01    0.2023773E-01    0.1299380E-01    0.4476914E-02   -0.4478396E-02   -0.1299520E-01   -0.2024051E-01
 -0.2550454E-01   -0.2827147E-01   -0.8204209E-01   -0.7401047E-01   -0.5873404E-01   -0.3770793E-01   -0.1299009E-01    0.1299999E-01    0.3771819E-01    0.5874456E-01
  0.7401933E-01    0.8204367E-01    0.8203687E-01    0.7400436E-01    0.5872895E-01    0.3770461E-01    0.1298891E-01   -0.1299885E-01   -0.3771459E-01   -0.5873899E-01
 -0.7401407E-01   -0.8204431E-01   -0.1277832E+00   -0.1152730E+00   -0.9147898E-01   -0.5872973E-01   -0.2023084E-01    0.2024917E-01    0.5874750E-01    0.9149479E-01
  0.1152842E+00    0.1277858E+00    0.1277786E+00    0.1152663E+00    0.9147264E-01    0.5872547E-01    0.2022971E-01   -0.2024684E-01   -0.5874219E-01   -0.9148797E-01
 -0.1152788E+00   -0.1277857E+00   -0.1610152E+00   -0.1452518E+00   -0.1152696E+00   -0.7400325E-01   -0.2549217E-01    0.2551497E-01    0.7402471E-01    0.1152877E+00
  0.1452640E+00    0.1610189E+00    0.1610120E+00    0.1452457E+00    0.1152632E+00    0.7399869E-01    0.2549085E-01   -0.2551266E-01   -0.7401959E-01   -0.1152815E+00
 -0.1452593E+00   -0.1610187E+00   -0.1784864E+00   -0.1610126E+00   -0.1277772E+00   -0.8203338E-01   -0.2825888E-01    0.2828232E-01    0.8205502E-01    0.1277949E+00
  0.1610241E+00    0.1784900E+00    0.1784837E+00    0.1610072E+00    0.1277712E+00    0.8202878E-01    0.2825708E-01   -0.2828098E-01   -0.8205133E-01   -0.1277905E+00
 -0.1610213E+00   -0.1784910E+00   -0.1784868E+00   -0.1610127E+00   -0.1277773E+00   -0.8203377E-01   -0.2825971E-01    0.2828092E-01    0.8205310E-01    0.1277927E+00
  0.1610222E+00    0.1784889E+00    0.1784835E+00    0.1610075E+00    0.1277717E+00    0.8202913E-01    0.2825719E-01   -0.2828098E-01   -0.8205140E-01   -0.1277906E+00
 -0.1610214E+00   -0.1784908E+00   -0.1610146E+00   -0.1452514E+00   -0.1152696E+00   -0.7400403E-01   -0.2549414E-01    0.2551148E-01    0.7401968E-01    0.1152817E+00
  0.1452586E+00    0.1610159E+00    0.1610116E+00    0.1452466E+00    0.1152643E+00    0.7399931E-01    0.2549093E-01   -0.2551294E-01   -0.7401999E-01   -0.1152818E+00
 -0.1452596E+00   -0.1610188E+00   -0.1277815E+00   -0.1152718E+00   -0.9147824E-01   -0.5872992E-01   -0.2023252E-01    0.2024544E-01    0.5874137E-01    0.9148688E-01
  0.1152765E+00    0.1277816E+00    0.1277784E+00    0.1152673E+00    0.9147326E-01    0.5872526E-01    0.2022883E-01   -0.2024804E-01   -0.5874331E-01   -0.9148879E-01
 -0.1152793E+00   -0.1277862E+00   -0.8204076E-01   -0.7400861E-01   -0.5873211E-01   -0.3770645E-01   -0.1298981E-01    0.1299830E-01    0.3771386E-01    0.5873735E-01
  0.7401083E-01    0.8203931E-01    0.8203697E-01    0.7400422E-01    0.5872749E-01    0.3770201E-01    0.1298587E-01   -0.1300162E-01   -0.3771688E-01   -0.5874060E-01
 -0.7401473E-01   -0.8204423E-01   -0.2826811E-01   -0.2550048E-01   -0.2023650E-01   -0.1299160E-01   -0.4475076E-02    0.4479452E-02    0.1299528E-01    0.2023870E-01
  0.2550082E-01    0.2826646E-01    0.2826493E-01    0.2549662E-01    0.2023242E-01    0.1298750E-01    0.4471205E-02   -0.4483066E-02   -0.1299898E-01   -0.2024268E-01
 -0.2550523E-01   -0.2827153E-01    0.2827114E-01    0.2550392E-01    0.2024023E-01    0.1299523E-01    0.4478108E-02   -0.4477477E-02   -0.1299500E-01   -0.2024067E-01
 -0.2550521E-01   -0.2827336E-01   -0.2827404E-01   -0.2550717E-01   -0.2024371E-01   -0.1299879E-01   -0.4481671E-02    0.4473775E-02    0.1299103E-01    0.2023633E-01
  0.2550029E-01    0.2826762E-01    0.8204260E-01    0.7401167E-01    0.5873571E-01    0.3771013E-01    0.1299307E-01   -0.1299601E-01   -0.3771307E-01   -0.5873867E-01
 -0.7401466E-01   -0.8204563E-01   -0.8204556E-01   -0.7401449E-01   -0.5873848E-01   -0.3771304E-01   -0.1299629E-01    0.1299244E-01    0.3770903E-01    0.5873406E-01
  0.7400966E-01    0.8204041E-01    0.1277842E+00    0.1152749E+00    0.9148175E-01    0.5873362E-01    0.2023604E-01   -0.2024249E-01   -0.5873969E-01   -0.9148716E-01
 -0.1152792E+00   -0.1277869E+00   -0.1277861E+00   -0.1152768E+00   -0.9148373E-01   -0.5873595E-01   -0.2023884E-01    0.2023908E-01    0.5873549E-01    0.9148243E-01
  0.1152743E+00    0.1277821E+00    0.1610168E+00    0.1452541E+00    0.1152728E+00    0.7400765E-01    0.2549793E-01   -0.2550786E-01   -0.7401689E-01   -0.1152806E+00
 -0.1452597E+00   -0.1610198E+00   -0.1610182E+00   -0.1452552E+00   -0.1152740E+00   -0.7400924E-01   -0.2550030E-01    0.2550443E-01    0.7401253E-01    0.1152756E+00
  0.1452545E+00    0.1610145E+00    0.1784873E+00    0.1610144E+00    0.1277799E+00    0.8203700E-01    0.2826348E-01   -0.2827688E-01   -0.8204930E-01   -0.1277901E+00
 -0.1610217E+00   -0.1784911E+00   -0.1784887E+00   -0.1610149E+00   -0.1277801E+00   -0.8203787E-01   -0.2826561E-01    0.2827340E-01    0.8204461E-01    0.1277846E+00
  0.1610162E+00    0.1784863E+00    0.1784875E+00    0.1610137E+00    0.1277788E+00    0.8203569E-01    0.2826195E-01   -0.2827846E-01   -0.8205081E-01   -0.1277913E+00
 -0.1610222E+00   -0.1784908E+00   -0.1784877E+00   -0.1610131E+00   -0.1277781E+00   -0.8203594E-01   -0.2826378E-01    0.2827480E-01    0.8204547E-01    0.1277852E+00
  0.1610166E+00    0.1784865E+00    0.1610156E+00    0.1452519E+00    0.1152698E+00    0.7400397E-01    0.2549368E-01   -0.2551237E-01   -0.7402114E-01   -0.1152838E+00
 -0.1452611E+00   -0.1610189E+00   -0.1610149E+00   -0.1452502E+00   -0.1152682E+00   -0.7400349E-01   -0.2549527E-01    0.2550834E-01    0.7401522E-01    0.1152771E+00
  0.1452548E+00    0.1610138E+00    0.1277810E+00    0.1152713E+00    0.9147730E-01    0.5872823E-01    0.2022989E-01   -0.2024906E-01   -0.5874586E-01   -0.9149179E-01
 -0.1152812E+00   -0.1277854E+00   -0.1277811E+00   -0.1152693E+00   -0.9147496E-01   -0.5872727E-01   -0.2023144E-01    0.2024487E-01    0.5873955E-01    0.9148452E-01
  0.1152746E+00    0.1277808E+00    0.8204068E-01    0.7400787E-01    0.5873067E-01    0.3770406E-01    0.1298619E-01   -0.1300313E-01   -0.3771965E-01   -0.5874350E-01
 -0.7401627E-01   -0.8204351E-01   -0.8203973E-01   -0.7400552E-01   -0.5872829E-01   -0.3770322E-01   -0.1298760E-01    0.1299912E-01    0.3771348E-01    0.5873687E-01
  0.7401077E-01    0.8204019E-01    0.2826935E-01    0.2550047E-01    0.2023567E-01    0.1298975E-01    0.4472193E-02   -0.4483132E-02   -0.1299975E-01   -0.2024321E-01
 -0.2550450E-01   -0.2827067E-01   -0.2826903E-01   -0.2549914E-01   -0.2023463E-01   -0.1298962E-01   -0.4473424E-02    0.4479837E-02    0.1299541E-01    0.2023932E-01
  0.2550102E-01    0.2826671E-01    0.2827434E-01    0.8204525E-01    0.1277849E+00    0.1610159E+00    0.1784834E+00    0.1784759E+00    0.1609937E+00    0.1277460E+00
  0.8198597E-01    0.2818714E-01   -0.2832848E-01   -0.8208497E-01   -0.1278111E+00   -0.1610324E+00   -0.1784959E+00   -0.1784888E+00   -0.1610131E+00   -0.1277795E+00
 -0.8203633E-01   -0.2826374E-01    0.2550683E-01    0.7401410E-01    0.1152763E+00    0.1452537E+00    0.1610106E+00    0.1610030E+00    0.1452305E+00    0.1152357E+00
  0.7395483E-01    0.2543259E-01   -0.2556128E-01   -0.7405482E-01   -0.1153039E+00   -0.1452715E+00   -0.1610240E+00   -0.1610175E+00   -0.1452521E+00   -0.1152706E+00
 -0.7400596E-01   -0.2549727E-01    0.2024192E-01    0.5873726E-01    0.9148266E-01    0.1152720E+00    0.1277756E+00    0.1277680E+00    0.1152490E+00    0.9144351E-01
  0.5868294E-01    0.2017850E-01   -0.2029332E-01   -0.5877782E-01   -0.9151173E-01   -0.1152923E+00   -0.1277917E+00   -0.1277855E+00   -0.1152732E+00   -0.9147916E-01
 -0.5873138E-01   -0.2023488E-01    0.1299535E-01    0.3771032E-01    0.5873335E-01    0.7400582E-01    0.8203181E-01    0.8202466E-01    0.7398433E-01    0.5869786E-01
  0.3766302E-01    0.1294187E-01   -0.1304271E-01   -0.3774974E-01   -0.5876361E-01   -0.7402884E-01   -0.8205143E-01   -0.8204557E-01   -0.7401105E-01   -0.5873360E-01
 -0.3770806E-01   -0.1299213E-01    0.4476630E-02    0.1299172E-01    0.2023429E-01    0.2549470E-01    0.2825727E-01    0.2825086E-01    0.2547565E-01    0.2020358E-01
  0.1295186E-01    0.4432212E-02   -0.4519983E-02   -0.1302956E-01   -0.2026538E-01   -0.2552028E-01   -0.2828032E-01   -0.2827510E-01   -0.2550445E-01   -0.2023904E-01
 -0.1299384E-01   -0.4477527E-02   -0.4480671E-02   -0.1299888E-01   -0.2024581E-01   -0.2551251E-01   -0.2828405E-01   -0.2828960E-01   -0.2552876E-01   -0.2027152E-01
 -0.1303166E-01   -0.4516702E-02    0.4440499E-02    0.1296258E-01    0.2021431E-01    0.2548495E-01    0.2825817E-01    0.2826270E-01    0.2549846E-01    0.2023648E-01
  0.1299230E-01    0.4475349E-02   -0.1299949E-01   -0.3771734E-01   -0.5874445E-01   -0.7402292E-01   -0.8205761E-01   -0.8206224E-01   -0.7403644E-01   -0.5876559E-01
 -0.3774386E-01   -0.1302841E-01    0.1296177E-01    0.3768235E-01    0.5871279E-01    0.7399389E-01    0.8202963E-01    0.8203339E-01    0.7400508E-01    0.5873099E-01
  0.3770646E-01    0.1298965E-01   -0.2024586E-01   -0.5874399E-01   -0.9149321E-01   -0.1152881E+00   -0.1277998E+00   -0.1278036E+00   -0.1152993E+00   -0.9151046E-01
 -0.5876547E-01   -0.2026927E-01    0.2021012E-01    0.5871006E-01    0.9146144E-01    0.1152581E+00    0.1277703E+00    0.1277734E+00    0.1152673E+00    0.9147629E-01
  0.5872945E-01    0.2023257E-01   -0.2551092E-01   -0.7402075E-01   -0.1152865E+00   -0.1452688E+00   -0.1610331E+00   -0.1610363E+00   -0.1452780E+00   -0.1153007E+00
 -0.7403836E-01   -0.2552990E-01    0.2547641E-01    0.7398756E-01    0.1152548E+00    0.1452382E+00    0.1610028E+00    0.1610054E+00    0.1452458E+00    0.1152669E+00
  0.7400353E-01    0.2549484E-01   -0.2827908E-01   -0.8205235E-01   -0.1277953E+00   -0.1610305E+00   -0.1785046E+00   -0.1785074E+00   -0.1610383E+00   -0.1278074E+00
 -0.8206720E-01   -0.2829509E-01    0.2824539E-01    0.8201968E-01    0.1277637E+00    0.1609996E+00    0.1784739E+00    0.1784761E+00    0.1610061E+00    0.1277741E+00
  0.8203321E-01    0.2826078E-01   -0.2827939E-01   -0.8205260E-01   -0.1277954E+00   -0.1610304E+00   -0.1785043E+00   -0.1785067E+00   -0.1610374E+00   -0.1278062E+00
 -0.8206593E-01   -0.2829395E-01    0.2824634E-01    0.8202024E-01    0.1277638E+00    0.1609994E+00    0.1784734E+00    0.1784754E+00    0.1610054E+00    0.1277734E+00
  0.8203246E-01    0.2826034E-01   -0.2551219E-01   -0.7402154E-01   -0.1152867E+00   -0.1452684E+00   -0.1610319E+00   -0.1610343E+00   -0.1452751E+00   -0.1152971E+00
 -0.7403448E-01   -0.2552623E-01    0.2547933E-01    0.7398932E-01    0.1152553E+00    0.1452376E+00    0.1610013E+00    0.1610034E+00    0.1452436E+00    0.1152647E+00
  0.7400157E-01    0.2549323E-01   -0.2024804E-01   -0.5874536E-01   -0.9149373E-01   -0.1152876E+00   -0.1277981E+00   -0.1278005E+00   -0.1152946E+00   -0.9150459E-01
 -0.5875894E-01   -0.2026295E-01    0.2021514E-01    0.5871317E-01    0.9146246E-01    0.1152571E+00    0.1277679E+00    0.1277702E+00    0.1152636E+00    0.9147275E-01
  0.5872633E-01    0.2022976E-01   -0.1300221E-01   -0.3771930E-01   -0.5874548E-01   -0.7402276E-01   -0.8205581E-01   -0.8205847E-01   -0.7403053E-01   -0.5875766E-01
 -0.3773473E-01   -0.1301946E-01    0.1296913E-01    0.3768695E-01    0.5871424E-01    0.7399269E-01    0.8202643E-01    0.8202894E-01    0.7400026E-01    0.5872624E-01
  0.3770205E-01    0.1298612E-01   -0.4484265E-02   -0.1300149E-01   -0.2024738E-01   -0.2551276E-01   -0.2828246E-01   -0.2828560E-01   -0.2552187E-01   -0.2026175E-01
 -0.1301989E-01   -0.4504693E-02    0.4450438E-02    0.1296880E-01    0.2021649E-01    0.2548360E-01    0.2825424E-01    0.2825740E-01    0.2549264E-01    0.2023069E-01
  0.1298714E-01    0.4471054E-02    0.4472436E-02    0.1298855E-01    0.2023211E-01    0.2549381E-01    0.2825824E-01    0.2825453E-01    0.2548289E-01    0.2021470E-01
  0.1296622E-01    0.4447464E-02   -0.4507400E-02   -0.1302171E-01   -0.2026260E-01   -0.2552185E-01   -0.2828472E-01   -0.2828101E-01   -0.2551102E-01   -0.2024540E-01
 -0.1299950E-01   -0.4482581E-02    0.1299132E-01    0.3770689E-01    0.5873061E-01    0.7400410E-01    0.8203177E-01    0.8202736E-01    0.7399099E-01    0.5870957E-01
  0.3767956E-01    0.1296036E-01   -0.1302759E-01   -0.3774074E-01   -0.5876077E-01   -0.7403061E-01   -0.8205617E-01   -0.8205192E-01   -0.7401778E-01   -0.5874010E-01
 -0.3771402E-01   -0.1299711E-01    0.2023786E-01    0.5873390E-01    0.9147983E-01    0.1152699E+00    0.1277747E+00    0.1277695E+00    0.1152545E+00    0.9145480E-01
  0.5870104E-01    0.2020093E-01   -0.2027627E-01   -0.5876865E-01   -0.9150918E-01   -0.1152944E+00   -0.1277966E+00   -0.1277915E+00   -0.1152796E+00   -0.9148533E-01
 -0.5873668E-01   -0.2023934E-01    0.2550322E-01    0.7401120E-01    0.1152739E+00    0.1452517E+00    0.1610092E+00    0.1610033E+00    0.1452341E+00    0.1152450E+00
  0.7397310E-01    0.2546051E-01   -0.2554405E-01   -0.7404686E-01   -0.1153023E+00   -0.1452742E+00   -0.1610283E+00   -0.1610225E+00   -0.1452578E+00   -0.1152756E+00
 -0.7401012E-01   -0.2550172E-01    0.2827236E-01    0.8204339E-01    0.1277834E+00    0.1610144E+00    0.1784817E+00    0.1784754E+00    0.1609950E+00    0.1277512E+00
  0.8200090E-01    0.2822589E-01   -0.2831499E-01   -0.8207988E-01   -0.1278112E+00   -0.1610354E+00   -0.1784986E+00   -0.1784924E+00   -0.1610180E+00   -0.1277823E+00
 -0.8203916E-01   -0.2826806E-01    0.4452219E-03    0.1856850E-02    0.4157820E-02    0.6452035E-02    0.7829788E-02    0.7795547E-02    0.6327870E-02    0.3932299E-02
  0.1511639E-02   -0.1843310E-03    0.2795151E-04    0.1582455E-02    0.3987636E-02    0.6274823E-02    0.7771901E-02    0.7852970E-02    0.6353246E-02    0.4139807E-02
  0.1940077E-02    0.3958039E-03    0.1847580E-02    0.3253099E-02    0.5546388E-02    0.7837460E-02    0.9224967E-02    0.9187726E-02    0.7723028E-02    0.5347779E-02
  0.2962838E-02    0.1476788E-02    0.1508953E-02    0.2994174E-02    0.5397128E-02    0.7701546E-02    0.9170481E-02    0.9258989E-02    0.7786552E-02    0.5541160E-02
  0.3343183E-02    0.1840809E-02    0.4155048E-02    0.5548995E-02    0.7833421E-02    0.1012341E-01    0.1151476E-01    0.1147792E-01    0.1002228E-01    0.7662353E-02
  0.5304891E-02    0.3873761E-02    0.3866699E-02    0.5313617E-02    0.7700343E-02    0.1000755E-01    0.1145986E-01    0.1155108E-01    0.1009592E-01    0.7821263E-02
  0.5630758E-02    0.4161881E-02    0.6458639E-02    0.7851085E-02    0.1013493E-01    0.1242440E-01    0.1381622E-01    0.1378369E-01    0.1233564E-01    0.9983811E-02
  0.7643581E-02    0.6230864E-02    0.6212233E-02    0.7643903E-02    0.1001845E-01    0.1231588E-01    0.1376765E-01    0.1385709E-01    0.1239132E-01    0.1012278E-01