 TITLE = "NAVIER-STOKES OUTPUT"
 VARIABLES = "X", "Y", "U", "V", "P", "Pex", "Vor"
 ZONE I =   21, J =   21, DATAPACKING = BLOCK, VARLOCATION=(3=CELLCENTERED, 4=CELLCENTERED,5=CELLCENTERED,6=CELLCENTERED, 7=CELLCENTERED)
  0.0000000E+00    0.3141593E+00    0.6283185E+00    0.9424778E+00    0.1256637E+01    0.1570796E+01    0.1884956E+01    0.2199115E+01    0.2513274E+01    0.2827433E+01
  0.3141593E+01    0.3455752E+01    0.3769911E+01    0.4084071E+01    0.4398230E+01    0.4712389E+01    0.5026548E+01    0.5340708E+01    0.5654867E+01    0.5969026E+01
  0.6283185E+01    0.0000000E+00    0.3141593E+00    0.6283185E+00    0.9424778E+00    0.1256637E+01    0.1570796E+01    0.1884956E+01    0.2199115E+01    0.2513274E+01
  0.2827433E+01    0.3141593E+01    0.3455752E+01    0.3769911E+01    0.4084071E+01    0.4398230E+01    0.4712389E+01    0.5026548E+01    0.5340708E+01    0.5654867E+01
  0.5969026E+01    0.6283185E+01    0.0000000E+00    0.3141593E+00    0.6283185E+00    0.9424778E+00    0.1256637E+01    0.1570796E+01    0.1884956E+01    0.2199115E+01
  0.2513274E+01    0.2827433E+01    0.3141593E+01    0.3455752E+01    0.3769911E+01    0.4084071E+01    0.4398230E+01    0.4712389E+01    0.5026548E+01    0.5340708E+01
  0.5654867E+01    0.5969026E+01    0.6283185E+01    0.0000000E+00    0.3141593E+00    0.6283185E+00    0.9424778E+00    0.1256637E+01    0.1570796E+01    0.1884956E+01
  0.2199115E+01    0.2513274E+01    0.2827433E+01    0.3141593E+01    0.3455752E+01    0.3769911E+01    0.4084071E+01    0.4398230E+01    0.4712389E+01    0.5026548E+01
  0.5340708E+01    0.5654867E+01    0.5969026E+01    0.6283185E+01    0.0000000E+00    0.3141593E+00    0.6283185E+00    0.9424778E+00    0.1256637E+01    0.1570796E+01
  0.1884956E+01    0.2199115E+01    0.2513274E+01    0.2827433E+01    0.3141593E+01    0.3455752E+01    0.3769911E+01    0.4084071E+01    0.4398230E+01    0.4712389E+01
  0.5026548E+01    0.5340708E+01    0.5654867E+01    0.5969026E+01    0.6283185E+01    0.0000000E+00    0.3141593E+00    0.6283185E+00    0.9424778E+00    0.1256637E+01
  0.1570796E+01    0.1884956E+01    0.2199115E+01    0.2513274E+01    0.2827433E+01    0.3141593E+01    0.3455752E+01    0.3769911E+01    0.4084071E+01    0.4398230E+01
  0.4712389E+01    0.5026548E+01    0.5340708E+01    0.5654867E+01    0.5969026E+01    0.6283185E+01    0.0000000E+00    0.3141593E+00    0.6283185E+00    0.9424778E+00
  0.1256637E+01    0.1570796E+01    0.1884956E+01    0.2199115E+01    0.2513274E+01    0.2827433E+01    0.3141593E+01    0.3455752E+01    0.3769911E+01    0.4084071E+01
  0.4398230E+01    0.4712389E+01    0.5026548E+01    0.5340708E+01    0.5654867E+01    0.5969026E+01    0.6283185E+01    0.0000000E+00    0.3141593E+00    0.6283185E+00
  0.9424778E+00    0.1256637E+01    0.1570796E+01    0.1884956E+01    0.2199115E+01    0.2513274E+01    0.2827433E+01    0.3141593E+01    0.3455752E+01    0.3769911E+01
  0.4084071E+01    0.4398230E+01    0.4712389E+01    0.5026548E+01    0.5340708E+01    0.5654867E+01    0.5969026E+01    0.6283185E+01    0.0000000E+00    0.3141593E+00
  0.6283185E+00    0.9424778E+00    0.1256637E+01    0.1570796E+01    0.1884956E+01    0.2199115E+01    0.2513274E+01    0.2827433E+01    0.3141593E+01    0.3455752E+01
  0.3769911E+01    0.4084071E+01    0.4398230E+01    0.4712389E+01    0.5026548E+01    0.5340708E+01    0.5654867E+01    0.5969026E+01    0.6283185E+01    0.0000000E+00
  0.3141593E+00    0.6283185E+00    0.9424778E+00    0.1256637E+01    0.1570796E+01    0.1884956E+01    0.2199115E+01    0.2513274E+01    0.2827433E+01    0.3141593E+01
  0.3455752E+01    0.3769911E+01    0.4084071E+01    0.4398230E+01    0.4712389E+01    0.5026548E+01    0.5340708E+01    0.5654867E+01    0.5969026E+01    0.6283185E+01
  0.0000000E+00    0.3141593E+00    0.6283185E+00    0.9424778E+00    0.1256637E+01    0.1570796E+01    0.1884956E+01    0.2199115E+01    0.2513274E+01    0.2827433E+01
  0.3141593E+01    0.3455752E+01    0.3769911E+01    0.4084071E+01    0.4398230E+01    0.4712389E+01    0.5026548E+01    0.5340708E+01    0.5654867E+01    0.5969026E+01
  0.6283185E+01    0.0000000E+00    0.3141593E+00    0.6283185E+00    0.9424778E+00    0.1256637E+01    0.1570796E+01    0.1884956E+01    0.2199115E+01    0.2513274E+01
  0.2827433E+01    0.3141593E+01    0.3455752E+01    0.3769911E+01    0.4084071E+01    0.4398230E+01    0.4712389E+01    0.5026548E+01    0.5340708E+01    0.5654867E+01
  0.5969026E+01    0.6283185E+01    0.0000000E+00    0.3141593E+00    0.6283185E+00    0.9424778E+00    0.1256637E+01    0.1570796E+01    0.1884956E+01    0.2199115E+01
  0.2513274E+01    0.2827433E+01    0.3141593E+01    0.3455752E+01    0.3769911E+01    0.4084071E+01    0.4398230E+01    0.4712389E+01    0.5026548E+01    0.5340708E+01
  0.5654867E+01    0.5969026E+01    0.6283185E+01    0.0000000E+00    0.3141593E+00    0.6283185E+00    0.9424778E+00    0.1256637E+01    0.1570796E+01    0.1884956E+01
  0.2199115E+01    0.2513274E+01    0.2827433E+01    0.3141593E+01    0.3455752E+01    0.3769911E+01    0.4084071E+01    0.4398230E+01    0.4712389E+01    0.5026548E+01
  0.5340708E+01    0.5654867E+01    0.5969026E+01    0.6283185E+01    0.0000000E+00    0.3141593E+00    0.6283185E+00    0.9424778E+00    0.1256637E+01    0.1570796E+01
  0.1884956E+01    0.2199115E+01    0.2513274E+01    0.2827433E+01    0.3141593E+01    0.3455752E+01    0.3769911E+01    0.4084071E+01    0.4398230E+01    0.4712389E+01
  0.5026548E+01    0.5340708E+01    0.5654867E+01    0.5969026E+01    0.6283185E+01    0.0000000E+00    0.3141593E+00    0.6283185E+00    0.9424778E+00    0.1256637E+01
  0.1570796E+01    0.1884956E+01    0.2199115E+01    0.2513274E+01    0.2827433E+01    0.3141593E+01    0.3455752E+01    0.3769911E+01    0.4084071E+01    0.4398230E+01
  0.4712389E+01    0.5026548E+01    0.5340708E+01    0.5654867E+01    0.5969026E+01    0.6283185E+01    0.0000000E+00    0.3141593E+00    0.6283185E+00    0.9424778E+00
  0.1256637E+01    0.1570796E+01    0.1884956E+01    0.2199115E+01    0.2513274E+01    0.2827433E+01    0.3141593E+01    0.3455752E+01    0.3769911E+01    0.4084071E+01
  0.4398230E+01    0.4712389E+01    0.5026548E+01    0.5340708E+01    0.5654867E+01    0.5969026E+01    0.6283185E+01    0.0000000E+00    0.3141593E+00    0.6283185E+00
  0.9424778E+00    0.1256637E+01    0.1570796E+01    0.1884956E+01    0.2199115E+01    0.2513274E+01    0.2827433E+01    0.3141593E+01    0.3455752E+01    0.3769911E+01
  0.4084071E+01    0.4398230E+01    0.4712389E+01    0.5026548E+01    0.5340708E+01    0.5654867E+01    0.5969026E+01    0.6283185E+01    0.0000000E+00    0.3141593E+00
  0.6283185E+00    0.9424778E+00    0.1256637E+01    0.1570796E+01    0.1884956E+01    0.2199115E+01    0.2513274E+01    0.2827433E+01    0.3141593E+01    0.3455752E+01
  0.3769911E+01    0.4084071E+01    0.4398230E+01    0.4712389E+01    0.5026548E+01    0.5340708E+01    0.5654867E+01    0.5969026E+01    0.6283185E+01    0.0000000E+00
  0.3141593E+00    0.6283185E+00    0.9424778E+00    0.1256637E+01    0.1570796E+01    0.1884956E+01    0.2199115E+01    0.2513274E+01    0.2827433E+01    0.3141593E+01
  0.3455752E+01    0.3769911E+01    0.4084071E+01    0.4398230E+01    0.4712389E+01    0.5026548E+01    0.5340708E+01    0.5654867E+01    0.5969026E+01    0.6283185E+01
  0.0000000E+00    0.3141593E+00    0.6283185E+00    0.9424778E+00    0.1256637E+01    0.1570796E+01    0.1884956E+01    0.2199115E+01    0.2513274E+01    0.2827433E+01
  0.3141593E+01    0.3455752E+01    0.3769911E+01    0.4084071E+01    0.4398230E+01    0.4712389E+01    0.5026548E+01    0.5340708E+01    0.5654867E+01    0.5969026E+01
  0.6283185E+01    0.0000000E+00    0.0000000E+00    0.0000000E+00    0.0000000E+00    0.0000000E+00    0.0000000E+00    0.0000000E+00    0.0000000E+00    0.0000000E+00
  0.0000000E+00    0.0000000E+00    0.0000000E+00    0.0000000E+00    0.0000000E+00    0.0000000E+00    0.0000000E+00    0.0000000E+00    0.0000000E+00    0.0000000E+00
  0.0000000E+00    0.0000000E+00    0.3141593E+00    0.3141593E+00    0.3141593E+00    0.3141593E+00    0.3141593E+00    0.3141593E+00    0.3141593E+00    0.3141593E+00
  0.3141593E+00    0.3141593E+00    0.3141593E+00    0.3141593E+00    0.3141593E+00    0.3141593E+00    0.3141593E+00    0.3141593E+00    0.3141593E+00    0.3141593E+00
  0.3141593E+00    0.3141593E+00    0.3141593E+00    0.6283185E+00    0.6283185E+00    0.6283185E+00    0.6283185E+00    0.6283185E+00    0.6283185E+00    0.6283185E+00
  0.6283185E+00    0.6283185E+00    0.6283185E+00    0.6283185E+00    0.6283185E+00    0.6283185E+00    0.6283185E+00    0.6283185E+00    0.6283185E+00    0.6283185E+00
  0.6283185E+00    0.6283185E+00    0.6283185E+00    0.6283185E+00    0.9424778E+00    0.9424778E+00    0.9424778E+00    0.9424778E+00    0.9424778E+00    0.9424778E+00
  0.9424778E+00    0.9424778E+00    0.9424778E+00    0.9424778E+00    0.9424778E+00    0.9424778E+00    0.9424778E+00    0.9424778E+00    0.9424778E+00    0.9424778E+00
  0.9424778E+00    0.9424778E+00    0.9424778E+00    0.9424778E+00    0.9424778E+00    0.1256637E+01    0.1256637E+01    0.1256637E+01    0.1256637E+01    0.1256637E+01
  0.1256637E+01    0.1256637E+01    0.1256637E+01    0.1256637E+01    0.1256637E+01    0.1256637E+01    0.1256637E+01    0.1256637E+01    0.1256637E+01    0.1256637E+01
  0.1256637E+01    0.1256637E+01    0.1256637E+01    0.1256637E+01    0.1256637E+01    0.1256637E+01    0.1570796E+01    0.1570796E+01    0.1570796E+01    0.1570796E+01
  0.1570796E+01    0.1570796E+01    0.1570796E+01    0.1570796E+01    0.1570796E+01    0.1570796E+01    0.1570796E+01    0.1570796E+01    0.1570796E+01    0.1570796E+01
  0.1570796E+01    0.1570796E+01    0.1570796E+01    0.1570796E+01    0.1570796E+01    0.1570796E+01    0.1570796E+01    0.1884956E+01    0.1884956E+01    0.1884956E+01
  0.1884956E+01    0.1884956E+01    0.1884956E+01    0.1884956E+01    0.1884956E+01    0.1884956E+01    0.1884956E+01    0.1884956E+01    0.1884956E+01    0.1884956E+01
  0.1884956E+01    0.1884956E+01    0.1884956E+01    0.1884956E+01    0.1884956E+01    0.1884956E+01    0.1884956E+01    0.1884956E+01    0.2199115E+01    0.2199115E+01
  0.2199115E+01    0.2199115E+01    0.2199115E+01    0.2199115E+01    0.2199115E+01    0.2199115E+01    0.2199115E+01    0.2199115E+01    0.2199115E+01    0.2199115E+01
  0.2199115E+01    0.2199115E+01    0.2199115E+01    0.2199115E+01    0.2199115E+01    0.2199115E+01    0.2199115E+01    0.2199115E+01    0.2199115E+01    0.2513274E+01
  0.2513274E+01    0.2513274E+01    0.2513274E+01    0.2513274E+01    0.2513274E+01    0.2513274E+01    0.2513274E+01    0.2513274E+01    0.2513274E+01    0.2513274E+01
  0.2513274E+01    0.2513274E+01    0.2513274E+01    0.2513274E+01    0.2513274E+01    0.2513274E+01    0.2513274E+01    0.2513274E+01    0.2513274E+01    0.2513274E+01
  0.2827433E+01    0.2827433E+01    0.2827433E+01    0.2827433E+01    0.2827433E+01    0.2827433E+01    0.2827433E+01    0.2827433E+01    0.2827433E+01    0.2827433E+01
  0.2827433E+01    0.2827433E+01    0.2827433E+01    0.2827433E+01    0.2827433E+01    0.2827433E+01    0.2827433E+01    0.2827433E+01    0.2827433E+01    0.2827433E+01
  0.2827433E+01    0.3141593E+01    0.3141593E+01    0.3141593E+01    0.3141593E+01    0.3141593E+01    0.3141593E+01    0.3141593E+01    0.3141593E+01    0.3141593E+01
  0.3141593E+01    0.3141593E+01    0.3141593E+01    0.3141593E+01    0.3141593E+01    0.3141593E+01    0.3141593E+01    0.3141593E+01    0.3141593E+01    0.3141593E+01
  0.3141593E+01    0.3141593E+01    0.3455752E+01    0.3455752E+01    0.3455752E+01    0.3455752E+01    0.3455752E+01    0.3455752E+01    0.3455752E+01    0.3455752E+01
  0.3455752E+01    0.3455752E+01    0.3455752E+01    0.3455752E+01    0.3455752E+01    0.3455752E+01    0.3455752E+01    0.3455752E+01    0.3455752E+01    0.3455752E+01
  0.3455752E+01    0.3455752E+01    0.3455752E+01    0.3769911E+01    0.3769911E+01    0.3769911E+01    0.3769911E+01    0.3769911E+01    0.3769911E+01    0.3769911E+01
  0.3769911E+01    0.3769911E+01    0.3769911E+01    0.3769911E+01    0.3769911E+01    0.3769911E+01    0.3769911E+01    0.3769911E+01    0.3769911E+01    0.3769911E+01
  0.3769911E+01    0.3769911E+01    0.3769911E+01    0.3769911E+01    0.4084071E+01    0.4084071E+01    0.4084071E+01    0.4084071E+01    0.4084071E+01    0.4084071E+01
  0.4084071E+01    0.4084071E+01    0.4084071E+01    0.4084071E+01    0.4084071E+01    0.4084071E+01    0.4084071E+01    0.4084071E+01    0.4084071E+01    0.4084071E+01
  0.4084071E+01    0.4084071E+01    0.4084071E+01    0.4084071E+01    0.4084071E+01    0.4398230E+01    0.4398230E+01    0.4398230E+01    0.4398230E+01    0.4398230E+01
  0.4398230E+01    0.4398230E+01    0.4398230E+01    0.4398230E+01    0.4398230E+01    0.4398230E+01    0.4398230E+01    0.4398230E+01    0.4398230E+01    0.4398230E+01
  0.4398230E+01    0.4398230E+01    0.4398230E+01    0.4398230E+01    0.4398230E+01    0.4398230E+01    0.4712389E+01    0.4712389E+01    0.4712389E+01    0.4712389E+01
  0.4712389E+01    0.4712389E+01    0.4712389E+01    0.4712389E+01    0.4712389E+01    0.4712389E+01    0.4712389E+01    0.4712389E+01    0.4712389E+01    0.4712389E+01
  0.4712389E+01    0.4712389E+01    0.4712389E+01    0.4712389E+01    0.4712389E+01    0.4712389E+01    0.4712389E+01    0.5026548E+01    0.5026548E+01    0.5026548E+01
  0.5026548E+01    0.5026548E+01    0.5026548E+01    0.5026548E+01    0.5026548E+01    0.5026548E+01    0.5026548E+01    0.5026548E+01    0.5026548E+01    0.5026548E+01
  0.5026548E+01    0.5026548E+01    0.5026548E+01    0.5026548E+01    0.5026548E+01    0.5026548E+01    0.5026548E+01    0.5026548E+01    0.5340708E+01    0.5340708E+01
  0.5340708E+01    0.5340708E+01    0.5340708E+01    0.5340708E+01    0.5340708E+01    0.5340708E+01    0.5340708E+01    0.5340708E+01    0.5340708E+01    0.5340708E+01
  0.5340708E+01    0.5340708E+01    0.5340708E+01    0.5340708E+01    0.5340708E+01    0.5340708E+01    0.5340708E+01    0.5340708E+01    0.5340708E+01    0.5654867E+01
  0.5654867E+01    0.5654867E+01    0.5654867E+01    0.5654867E+01    0.5654867E+01    0.5654867E+01    0.5654867E+01    0.5654867E+01    0.5654867E+01    0.5654867E+01
  0.5654867E+01    0.5654867E+01    0.5654867E+01    0.5654867E+01    0.5654867E+01    0.5654867E+01    0.5654867E+01    0.5654867E+01    0.5654867E+01    0.5654867E+01
  0.5969026E+01    0.5969026E+01    0.5969026E+01    0.5969026E+01    0.5969026E+01    0.5969026E+01    0.5969026E+01    0.5969026E+01    0.5969026E+01    0.5969026E+01
  0.5969026E+01    0.5969026E+01    0.5969026E+01    0.5969026E+01    0.5969026E+01    0.5969026E+01    0.5969026E+01    0.5969026E+01    0.5969026E+01    0.5969026E+01
  0.5969026E+01    0.6283185E+01    0.6283185E+01    0.6283185E+01    0.6283185E+01    0.6283185E+01    0.6283185E+01    0.6283185E+01    0.6283185E+01    0.6283185E+01
  0.6283185E+01    0.6283185E+01    0.6283185E+01    0.6283185E+01    0.6283185E+01    0.6283185E+01    0.6283185E+01    0.6283185E+01    0.6283185E+01    0.6283185E+01
  0.6283185E+01    0.6283185E+01   -0.7620379E-01   -0.6874061E-01   -0.5454653E-01   -0.3501064E-01   -0.1204475E-01    0.1210468E-01    0.3507674E-01    0.5462622E-01
  0.6883507E-01    0.7622280E-01    0.7614783E-01    0.6870215E-01    0.5452698E-01    0.3500343E-01    0.1204673E-01   -0.1209239E-01   -0.3505192E-01   -0.5458289E-01
 -0.6877152E-01   -0.7623131E-01   -0.2211769E+00   -0.1995221E+00   -0.1583340E+00   -0.1016437E+00   -0.3499928E-01    0.3507747E-01    0.1017284E+00    0.1584274E+00
  0.1996096E+00    0.2212037E+00    0.2211430E+00    0.1994834E+00    0.1583078E+00    0.1016319E+00    0.3500186E-01   -0.3505905E-01   -0.1016926E+00   -0.1583745E+00
 -0.1995555E+00   -0.2212051E+00   -0.3444990E+00   -0.3107724E+00   -0.2466224E+00   -0.1583274E+00   -0.5452935E-01    0.5461226E-01    0.1584135E+00    0.2467091E+00
  0.3108447E+00    0.3445285E+00    0.3444860E+00    0.3107459E+00    0.2465998E+00    0.1583158E+00    0.5453187E-01   -0.5459398E-01   -0.1583798E+00   -0.2466650E+00
 -0.3108071E+00   -0.3445273E+00   -0.4340991E+00   -0.3916019E+00   -0.3107693E+00   -0.1995129E+00   -0.6872268E-01    0.6879906E-01    0.1995894E+00    0.3108416E+00
  0.3916590E+00    0.4341265E+00    0.4340977E+00    0.3915871E+00    0.3107536E+00    0.1995039E+00    0.6872437E-01   -0.6878506E-01   -0.1995645E+00   -0.3108116E+00
 -0.3916366E+00   -0.4341277E+00   -0.4812062E+00   -0.4340978E+00   -0.3444949E+00   -0.2211678E+00   -0.7618805E-01    0.7625249E-01    0.2212305E+00    0.3445518E+00
  0.4341415E+00    0.4812288E+00    0.4812094E+00    0.4340909E+00    0.3444854E+00    0.2211615E+00    0.7618856E-01   -0.7624395E-01   -0.2212154E+00   -0.3445348E+00
 -0.4341308E+00   -0.4812328E+00   -0.4812067E+00   -0.4340991E+00   -0.3444972E+00   -0.2211712E+00   -0.7619324E-01    0.7624502E-01    0.2212208E+00    0.3445410E+00
  0.4341326E+00    0.4812257E+00    0.4812126E+00    0.4340973E+00    0.3444922E+00    0.2211672E+00    0.7619269E-01   -0.7624112E-01   -0.2212136E+00   -0.3445337E+00
 -0.4341300E+00   -0.4812320E+00   -0.4341021E+00   -0.3916063E+00   -0.3107757E+00   -0.1995226E+00   -0.6873716E-01    0.6877803E-01    0.1995612E+00    0.3108094E+00
  0.3916322E+00    0.4341180E+00    0.4341089E+00    0.3916074E+00    0.3107738E+00    0.1995201E+00    0.6873601E-01   -0.6877731E-01   -0.1995596E+00   -0.3108088E+00
 -0.3916353E+00   -0.4341276E+00   -0.3445043E+00   -0.3107790E+00   -0.2466315E+00   -0.1583409E+00   -0.5454966E-01    0.5458216E-01    0.1583714E+00    0.2466579E+00
  0.3107993E+00    0.3445168E+00    0.3445104E+00    0.3107815E+00    0.2466315E+00    0.1583398E+00    0.5454846E-01   -0.5458321E-01   -0.1583729E+00   -0.2466610E+00
 -0.3108055E+00   -0.3445276E+00   -0.2211808E+00   -0.1995281E+00   -0.1583432E+00   -0.1016575E+00   -0.3501989E-01    0.3504635E-01    0.1016823E+00    0.1583649E+00
  0.1995453E+00    0.2211927E+00    0.2211881E+00    0.1995322E+00    0.1583449E+00    0.1016576E+00    0.3501903E-01   -0.3504803E-01   -0.1016852E+00   -0.1583697E+00
 -0.1995527E+00   -0.2212029E+00   -0.7620577E-01   -0.6874493E-01   -0.5455361E-01   -0.3502125E-01   -0.1206005E-01    0.1208229E-01    0.3504222E-01    0.5457203E-01
  0.6876000E-01    0.7621721E-01    0.7621368E-01    0.6874997E-01    0.5455652E-01    0.3502242E-01    0.1205982E-01   -0.1208391E-01   -0.3504569E-01   -0.5457772E-01
 -0.6876835E-01   -0.7622880E-01    0.7622831E-01    0.6876832E-01    0.5457740E-01    0.3504464E-01    0.1208206E-01   -0.1206272E-01   -0.3502643E-01   -0.5456128E-01
 -0.6875515E-01   -0.7621876E-01   -0.7622145E-01   -0.6876300E-01   -0.5457369E-01   -0.3504252E-01   -0.1208152E-01    0.1206144E-01    0.3502305E-01    0.5455556E-01
  0.6874672E-01    0.7620743E-01    0.2212041E+00    0.1995522E+00    0.1583676E+00    0.1016816E+00    0.3504290E-01   -0.3502562E-01   -0.1016652E+00   -0.1583529E+00
 -0.1995396E+00   -0.2211938E+00   -0.2211960E+00   -0.1995459E+00   -0.1583629E+00   -0.1016786E+00   -0.3504168E-01    0.3502484E-01    0.1016622E+00    0.1583473E+00
  0.1995318E+00    0.2211843E+00    0.3445274E+00    0.3108032E+00    0.2466567E+00    0.1583664E+00    0.5457461E-01   -0.5455889E-01   -0.1583515E+00   -0.2466433E+00
 -0.3107915E+00   -0.3445171E+00   -0.3445188E+00   -0.3107965E+00   -0.2466514E+00   -0.1583628E+00   -0.5457283E-01    0.5455851E-01    0.1583485E+00    0.2466375E+00
  0.3107830E+00    0.3445057E+00    0.4341248E+00    0.3916311E+00    0.3108023E+00    0.1995503E+00    0.6876522E-01   -0.6875076E-01   -0.1995367E+00   -0.3107902E+00
 -0.3916210E+00   -0.4341169E+00   -0.4341182E+00   -0.3916248E+00   -0.3107968E+00   -0.1995462E+00   -0.6876305E-01    0.6875040E-01    0.1995335E+00    0.3107841E+00
  0.3916121E+00    0.4341054E+00    0.4812313E+00    0.4341258E+00    0.3445259E+00    0.2212020E+00    0.7622558E-01   -0.7621215E-01   -0.2211894E+00   -0.3445149E+00
 -0.4341163E+00   -0.4812228E+00   -0.4812236E+00   -0.4341189E+00   -0.3445199E+00   -0.2211975E+00   -0.7622332E-01    0.7621159E-01    0.2211857E+00    0.3445079E+00
  0.4341070E+00    0.4812126E+00    0.4812315E+00    0.4341256E+00    0.3445258E+00    0.2212019E+00    0.7622537E-01   -0.7621263E-01   -0.2211904E+00   -0.3445162E+00
 -0.4341176E+00   -0.4812239E+00   -0.4812242E+00   -0.4341189E+00   -0.3445197E+00   -0.2211973E+00   -0.7622317E-01    0.7621150E-01    0.2211852E+00    0.3445073E+00
  0.4341057E+00    0.4812097E+00    0.4341234E+00    0.3916305E+00    0.3108022E+00    0.1995504E+00    0.6876497E-01   -0.6875190E-01   -0.1995391E+00   -0.3107937E+00
 -0.3916250E+00   -0.4341202E+00   -0.4341199E+00   -0.3916251E+00   -0.3107963E+00   -0.1995456E+00   -0.6876292E-01    0.6874990E-01    0.1995325E+00    0.3107828E+00
  0.3916106E+00    0.4341041E+00    0.3445260E+00    0.3108031E+00    0.2466572E+00    0.1583673E+00    0.5457523E-01   -0.5455950E-01   -0.1583539E+00   -0.2466475E+00
 -0.3107969E+00   -0.3445222E+00   -0.3445221E+00   -0.3107978E+00   -0.2466514E+00   -0.1583625E+00   -0.5457338E-01    0.5455718E-01    0.1583467E+00    0.2466352E+00
  0.3107814E+00    0.3445067E+00    0.2212040E+00    0.1995528E+00    0.1583693E+00    0.1016843E+00    0.3504598E-01   -0.3502310E-01   -0.1016641E+00   -0.1583535E+00
 -0.1995424E+00   -0.2211999E+00   -0.2212031E+00   -0.1995508E+00   -0.1583658E+00   -0.1016806E+00   -0.3504406E-01    0.3502181E-01    0.1016588E+00    0.1583433E+00
  0.1995270E+00    0.2211790E+00    0.7622656E-01    0.6876964E-01    0.5458112E-01    0.3505052E-01    0.1209014E-01   -0.1205277E-01   -0.3501434E-01   -0.5454662E-01
 -0.6874153E-01   -0.7622297E-01   -0.7624083E-01   -0.6877956E-01   -0.5458534E-01   -0.3505023E-01   -0.1208800E-01    0.1205552E-01    0.3501852E-01    0.5455058E-01
  0.6874119E-01    0.7620314E-01    0.7623297E-01    0.2212089E+00    0.3445344E+00    0.4341370E+00    0.4812447E+00    0.4812450E+00    0.4341301E+00    0.3444947E+00
  0.2210777E+00    0.7587122E-01   -0.7635399E-01   -0.2212386E+00   -0.3445226E+00   -0.4341079E+00   -0.4812048E+00   -0.4812021E+00   -0.4340993E+00   -0.3444976E+00
 -0.2211742E+00   -0.7620409E-01    0.6876971E-01    0.1995541E+00    0.3108071E+00    0.3916380E+00    0.4341333E+00    0.4341303E+00    0.3916217E+00    0.3107546E+00
  0.1994267E+00    0.6854028E-01   -0.6888747E-01   -0.1995996E+00   -0.3108107E+00   -0.3916205E+00   -0.4341052E+00   -0.4341016E+00   -0.3916070E+00   -0.3107767E+00
 -0.1995254E+00   -0.6874375E-01    0.5457588E-01    0.1583665E+00    0.2466567E+00    0.3108033E+00    0.3445256E+00    0.3445197E+00    0.3107802E+00    0.2466016E+00
  0.1582620E+00    0.5442715E-01   -0.5467118E-01   -0.1584161E+00   -0.2466724E+00   -0.3107991E+00   -0.3445124E+00   -0.3445075E+00   -0.3107819E+00   -0.2466344E+00
 -0.1583446E+00   -0.5455494E-01    0.3504076E-01    0.1016779E+00    0.1583627E+00    0.1995459E+00    0.2211946E+00    0.2211874E+00    0.1995211E+00    0.1583129E+00
  0.1015978E+00    0.3494011E-01   -0.3511291E-01   -0.1017236E+00   -0.1583850E+00   -0.1995530E+00   -0.2211950E+00   -0.2211896E+00   -0.1995348E+00   -0.1583488E+00
 -0.1016629E+00   -0.3502559E-01    0.1207601E-01    0.3503698E-01    0.5456813E-01    0.6875696E-01    0.7621352E-01    0.7620626E-01    0.6873386E-01    0.5452660E-01
  0.3497712E-01    0.1200596E-01   -0.1213069E-01   -0.3507668E-01   -0.5459294E-01   -0.6877151E-01   -0.7622382E-01   -0.7621872E-01   -0.6875495E-01   -0.5456199E-01
 -0.3502871E-01   -0.1206676E-01   -0.1207012E-01   -0.3503272E-01   -0.5456693E-01   -0.6876100E-01   -0.7622621E-01   -0.7623275E-01   -0.6878086E-01   -0.5460018E-01
 -0.3507731E-01   -0.1211987E-01    0.1202759E-01    0.3499891E-01    0.5454212E-01    0.6874241E-01    0.7620974E-01    0.7621411E-01    0.6875612E-01    0.5456656E-01
  0.3503501E-01    0.1207355E-01   -0.3503374E-01   -0.1016723E+00   -0.1583597E+00   -0.1995472E+00   -0.2212034E+00   -0.2212089E+00   -0.1995635E+00   -0.1583859E+00
 -0.1017059E+00   -0.3507000E-01    0.3499978E-01    0.1016436E+00    0.1583362E+00    0.1995270E+00    0.2211839E+00    0.2211873E+00    0.1995375E+00    0.1583546E+00
  0.1016700E+00    0.3503268E-01   -0.5456793E-01   -0.1583593E+00   -0.2466508E+00   -0.3108000E+00   -0.3445274E+00   -0.3445319E+00   -0.3108131E+00   -0.2466713E+00
 -0.1583846E+00   -0.5459454E-01    0.5453960E-01    0.1583344E+00    0.2466289E+00    0.3107796E+00    0.3445068E+00    0.3445093E+00    0.3107873E+00    0.2466423E+00
  0.1583534E+00    0.5456347E-01   -0.6876043E-01   -0.1995447E+00   -0.3107978E+00   -0.3916293E+00   -0.4341268E+00   -0.4341305E+00   -0.3916397E+00   -0.3108137E+00
 -0.1995639E+00   -0.6877999E-01    0.6873607E-01    0.1995229E+00    0.3107777E+00    0.3916098E+00    0.4341066E+00    0.4341083E+00    0.3916152E+00    0.3107870E+00
  0.1995362E+00    0.6875298E-01   -0.7622159E-01   -0.2211970E+00   -0.3445216E+00   -0.4341234E+00   -0.4812315E+00   -0.4812343E+00   -0.4341316E+00   -0.3445341E+00
 -0.2212118E+00   -0.7623649E-01    0.7620069E-01    0.2211779E+00    0.3445036E+00    0.4341053E+00    0.4812123E+00    0.4812135E+00    0.4341089E+00    0.3445098E+00
  0.2211871E+00    0.7621259E-01   -0.7622216E-01   -0.2211973E+00   -0.3445217E+00   -0.4341231E+00   -0.4812305E+00   -0.4812328E+00   -0.4341295E+00   -0.3445313E+00
 -0.2212087E+00   -0.7623331E-01    0.7620364E-01    0.2211804E+00    0.3445052E+00    0.4341064E+00    0.4812129E+00    0.4812137E+00    0.4341089E+00    0.3445096E+00
  0.2211868E+00    0.7621254E-01   -0.6876188E-01   -0.1995456E+00   -0.3107978E+00   -0.3916281E+00   -0.4341241E+00   -0.4341258E+00   -0.3916330E+00   -0.3108051E+00
 -0.1995541E+00   -0.6876996E-01    0.6874522E-01    0.1995303E+00    0.3107831E+00    0.3916132E+00    0.4341083E+00    0.4341089E+00    0.3916148E+00    0.3107860E+00
  0.1995348E+00    0.6875145E-01   -0.5457030E-01   -0.1583609E+00   -0.2466512E+00   -0.3107984E+00   -0.3445233E+00   -0.3445245E+00   -0.3108020E+00   -0.2466567E+00
 -0.1583675E+00   -0.5457671E-01    0.5455578E-01    0.1583474E+00    0.2466381E+00    0.3107852E+00    0.3445095E+00    0.3445099E+00    0.3107864E+00    0.2466402E+00
  0.1583507E+00    0.5456021E-01   -0.3503795E-01   -0.1016756E+00   -0.1583612E+00   -0.1995462E+00   -0.2211988E+00   -0.2211996E+00   -0.1995486E+00   -0.1583650E+00
 -0.1016801E+00   -0.3504271E-01    0.3502462E-01    0.1016630E+00    0.1583493E+00    0.1995346E+00    0.2211872E+00    0.2211875E+00    0.1995357E+00    0.1583514E+00
  0.1016660E+00    0.3502879E-01   -0.1207637E-01   -0.3503782E-01   -0.5457012E-01   -0.6876125E-01   -0.7622210E-01   -0.7622247E-01   -0.6876235E-01   -0.5457211E-01
 -0.3504072E-01   -0.1207965E-01    0.1206371E-01    0.3502598E-01    0.5455940E-01    0.6875153E-01    0.7621291E-01    0.7621336E-01    0.6875278E-01    0.5456147E-01
  0.3502895E-01    0.1206716E-01    0.1206767E-01    0.3502950E-01    0.5456237E-01    0.6875416E-01    0.7621548E-01    0.7621575E-01    0.6875461E-01    0.5456217E-01
  0.3502796E-01    0.1206459E-01   -0.1207952E-01   -0.3504071E-01   -0.5457199E-01   -0.6876201E-01   -0.7622177E-01   -0.7622130E-01   -0.6876055E-01   -0.5456944E-01
 -0.3503736E-01   -0.1207622E-01    0.3502889E-01    0.1016667E+00    0.1583531E+00    0.1995390E+00    0.2211925E+00    0.2211936E+00    0.1995416E+00    0.1583556E+00
  0.1016673E+00    0.3502661E-01   -0.3504164E-01   -0.1016785E+00   -0.1583623E+00   -0.1995449E+00   -0.2211955E+00   -0.2211952E+00   -0.1995431E+00   -0.1583589E+00
 -0.1016742E+00   -0.3503698E-01    0.5456022E-01    0.1583514E+00    0.2466427E+00    0.3107913E+00    0.3445177E+00    0.3445200E+00    0.3107969E+00    0.2466487E+00
  0.1583548E+00    0.5455965E-01   -0.5457487E-01   -0.1583644E+00   -0.2466515E+00   -0.3107951E+00   -0.3445171E+00   -0.3445169E+00   -0.3107933E+00   -0.2466476E+00
 -0.1583595E+00   -0.5457026E-01    0.6875087E-01    0.1995350E+00    0.3107886E+00    0.3916206E+00    0.4341189E+00    0.4341227E+00    0.3916297E+00    0.3107989E+00
  0.1995430E+00    0.6875450E-01   -0.6876667E-01   -0.1995493E+00   -0.3107977E+00   -0.3916232E+00   -0.4341147E+00   -0.4341155E+00   -0.3916215E+00   -0.3107924E+00
 -0.1995441E+00   -0.6876304E-01    0.7620907E-01    0.2211847E+00    0.3445107E+00    0.4341138E+00    0.4812242E+00    0.4812293E+00    0.4341255E+00    0.3445246E+00
  0.2212010E+00    0.7623530E-01   -0.7622650E-01   -0.2212030E+00   -0.3445233E+00   -0.4341179E+00   -0.4812186E+00   -0.4812212E+00   -0.4341159E+00   -0.3445143E+00
 -0.2211968E+00   -0.7622447E-01   -0.3478865E-01   -0.2443394E-01   -0.7675738E-02    0.9080577E-02    0.1940183E-01    0.1936528E-01    0.8962317E-02   -0.7900084E-02
 -0.2482919E-01   -0.3575770E-01   -0.3524114E-01   -0.2472480E-01   -0.7873457E-02    0.8885287E-02    0.1929703E-01    0.1936906E-01    0.8979690E-02   -0.7735280E-02
 -0.2439540E-01   -0.3476994E-01   -0.2444659E-01   -0.1410739E-01    0.2639155E-02    0.1938873E-01    0.2971402E-01    0.2967054E-01    0.1925494E-01    0.2392812E-02
 -0.1449575E-01   -0.2499606E-01   -0.2488724E-01   -0.1443198E-01    0.2434930E-02    0.1922228E-01    0.2961573E-01    0.2969989E-01    0.1933764E-01    0.2593037E-02
 -0.1406064E-01   -0.2440605E-01   -0.7688668E-02    0.2635130E-02    0.1936906E-01    0.3611638E-01    0.4644752E-01    0.4639733E-01    0.3598680E-01    0.1914600E-01
  0.2294217E-02   -0.8101930E-02   -0.8078350E-02    0.2320917E-02    0.1917459E-01    0.3597684E-01    0.4635653E-01    0.4644019E-01    0.3610146E-01    0.1933695E-01
  0.2678026E-02   -0.7634069E-02    0.9069109E-02    0.1939077E-01    0.3612415E-01    0.5287409E-01    0.6319788E-01    0.6315117E-01    0.5275374E-01    0.3591625E-01
  0.1909054E-01    0.8730345E-02    0.8720901E-02    0.1909782E-01    0.3594578E-01    0.5273369E-01    0.6311275E-01    0.6320443E-01    0.5285287E-01    0.3608899E-01