 TITLE = "NAVIER-STOKES OUTPUT"
 VARIABLES = "X", "Y", "U", "V", "P", "Pex", "Vor"
 ZONE I =   21, J =   21, DATAPACKING = BLOCK, VARLOCATION=(3=CELLCENTERED, 4=CELLCENTERED,5=CELLCENTERED,6=CELLCENTERED, 7=CELLCENTERED)
  0.0000000E+00    0.3141593E+00    0.6283185E+00    0.9424778E+00    0.1256637E+01    0.1570796E+01    0.1884956E+01    0.2199115E+01    0.2513274E+01    0.2827433E+01
  0.3141593E+01    0.3455752E+01    0.3769911E+01    0.4084071E+01    0.4398230E+01    0.4712389E+01    0.5026548E+01    0.5340708E+01    0.5654867E+01    0.5969026E+01
  0.6283185E+01    0.0000000E+00    0.3141593E+00    0.6283185E+00    0.9424778E+00    0.1256637E+01    0.1570796E+01    0.1884956E+01    0.2199115E+01    0.2513274E+01
  0.2827433E+01    0.3141593E+01    0.3455752E+01    0.3769911E+01    0.4084071E+01    0.4398230E+01    0.4712389E+01    0.5026548E+01    0.5340708E+01    0.5654867E+01
  0.5969026E+01    0.6283185E+01    0.0000000E+00    0.3141593E+00    0.6283185E+00    0.9424778E+00    0.1256637E+01    0.1570796E+01    0.1884956E+01    0.2199115E+01
  0.2513274E+01    0.2827433E+01    0.3141593E+01    0.3455752E+01    0.3769911E+01    0.4084071E+01    0.4398230E+01    0.4712389E+01    0.5026548E+01    0.5340708E+01
  0.5654867E+01    0.5969026E+01    0.6283185E+01    0.0000000E+00    0.3141593E+00    0.6283185E+00    0.9424778E+00    0.1256637E+01    0.1570796E+01    0.1884956E+01
  0.2199115E+01    0.2513274E+01    0.2827433E+01    0.3141593E+01    0.3455752E+01    0.3769911E+01    0.4084071E+01    0.4398230E+01    0.4712389E+01    0.5026548E+01
  0.5340708E+01    0.5654867E+01    0.5969026E+01    0.6283185E+01    0.0000000E+00    0.3141593E+00    0.6283185E+00    0.9424778E+00    0.1256637E+01    0.1570796E+01
  0.1884956E+01    0.2199115E+01    0.2513274E+01    0.2827433E+01    0.3141593E+01    0.3455752E+01    0.3769911E+01    0.4084071E+01    0.4398230E+01    0.4712389E+01
  0.5026548E+01    0.5340708E+01    0.5654867E+01    0.5969026E+01    0.6283185E+01    0.0000000E+00    0.3141593E+00    0.6283185E+00    0.9424778E+00    0.1256637E+01
  0.1570796E+01    0.1884956E+01    0.2199115E+01    0.2513274E+01    0.2827433E+01    0.3141593E+01    0.3455752E+01    0.3769911E+01    0.4084071E+01    0.4398230E+01
  0.4712389E+01    0.5026548E+01    0.5340708E+01    0.5654867E+01    0.5969026E+01    0.6283185E+01    0.0000000E+00    0.3141593E+00    0.6283185E+00    0.9424778E+00
  0.1256637E+01    0.1570796E+01    0.1884956E+01    0.2199115E+01    0.2513274E+01    0.2827433E+01    0.3141593E+01    0.3455752E+01    0.3769911E+01    0.4084071E+01
  0.4398230E+01    0.4712389E+01    0.5026548E+01    0.5340708E+01    0.5654867E+01    0.5969026E+01    0.6283185E+01    0.0000000E+00    0.3141593E+00    0.6283185E+00
  0.9424778E+00    0.1256637E+01    0.1570796E+01    0.1884956E+01    0.2199115E+01    0.2513274E+01    0.2827433E+01    0.3141593E+01    0.3455752E+01    0.3769911E+01
  0.4084071E+01    0.4398230E+01    0.4712389E+01    0.5026548E+01    0.5340708E+01    0.5654867E+01    0.5969026E+01    0.6283185E+01    0.0000000E+00    0.3141593E+00
  0.6283185E+00    0.9424778E+00    0.1256637E+01    0.1570796E+01    0.1884956E+01    0.2199115E+01    0.2513274E+01    0.2827433E+01    0.3141593E+01    0.3455752E+01
  0.3769911E+01    0.4084071E+01    0.4398230E+01    0.4712389E+01    0.5026548E+01    0.5340708E+01    0.5654867E+01    0.5969026E+01    0.6283185E+01    0.0000000E+00
  0.3141593E+00    0.6283185E+00    0.9424778E+00    0.1256637E+01    0.1570796E+01    0.1884956E+01    0.2199115E+01    0.2513274E+01    0.2827433E+01    0.3141593E+01
  0.3455752E+01    0.3769911E+01    0.4084071E+01    0.4398230E+01    0.4712389E+01    0.5026548E+01    0.5340708E+01    0.5654867E+01    0.5969026E+01    0.6283185E+01
  0.0000000E+00    0.3141593E+00    0.6283185E+00    0.9424778E+00    0.1256637E+01    0.1570796E+01    0.1884956E+01    0.2199115E+01    0.2513274E+01    0.2827433E+01
  0.3141593E+01    0.3455752E+01    0.3769911E+01    0.4084071E+01    0.4398230E+01    0.4712389E+01    0.5026548E+01    0.5340708E+01    0.5654867E+01    0.5969026E+01
  0.6283185E+01    0.0000000E+00    0.3141593E+00    0.6283185E+00    0.9424778E+00    0.1256637E+01    0.1570796E+01    0.1884956E+01    0.2199115E+01    0.2513274E+01
  0.2827433E+01    0.3141593E+01    0.3455752E+01    0.3769911E+01    0.4084071E+01    0.4398230E+01    0.4712389E+01    0.5026548E+01    0.5340708E+01    0.5654867E+01
  0.5969026E+01    0.6283185E+01    0.0000000E+00    0.3141593E+00    0.6283185E+00    0.9424778E+00    0.1256637E+01    0.1570796E+01    0.1884956E+01    0.2199115E+01
  0.2513274E+01    0.2827433E+01    0.3141593E+01    0.3455752E+01    0.3769911E+01    0.4084071E+01    0.4398230E+01    0.4712389E+01    0.5026548E+01    0.5340708E+01
  0.5654867E+01    0.5969026E+01    0.6283185E+01    0.0000000E+00    0.3141593E+00    0.6283185E+00    0.9424778E+00    0.1256637E+01    0.1570796E+01    0.1884956E+01
  0.2199115E+01    0.2513274E+01    0.2827433E+01    0.3141593E+01    0.3455752E+01    0.3769911E+01    0.4084071E+01    0.4398230E+01    0.4712389E+01    0.5026548E+01
  0.5340708E+01    0.5654867E+01    0.5969026E+01    0.6283185E+01    0.0000000E+00    0.3141593E+00    0.6283185E+00    0.9424778E+00    0.1256637E+01    0.1570796E+01
  0.1884956E+01    0.2199115E+01    0.2513274E+01    0.2827433E+01    0.3141593E+01    0.3455752E+01    0.3769911E+01    0.4084071E+01    0.4398230E+01    0.4712389E+01
  0.5026548E+01    0.5340708E+01    0.5654867E+01    0.5969026E+01    0.6283185E+01    0.0000000E+00    0.3141593E+00    0.6283185E+00    0.9424778E+00    0.1256637E+01
  0.1570796E+01    0.1884956E+01    0.2199115E+01    0.2513274E+01    0.2827433E+01    0.3141593E+01    0.3455752E+01    0.3769911E+01    0.4084071E+01    0.4398230E+01
  0.4712389E+01    0.5026548E+01    0.5340708E+01    0.5654867E+01    0.5969026E+01    0.6283185E+01    0.0000000E+00    0.3141593E+00    0.6283185E+00    0.9424778E+00
  0.1256637E+01    0.1570796E+01    0.1884956E+01    0.2199115E+01    0.2513274E+01    0.2827433E+01    0.3141593E+01    0.3455752E+01    0.3769911E+01    0.4084071E+01
  0.4398230E+01    0.4712389E+01    0.5026548E+01    0.5340708E+01    0.5654867E+01    0.5969026E+01    0.6283185E+01    0.0000000E+00    0.3141593E+00    0.6283185E+00
  0.9424778E+00    0.1256637E+01    0.1570796E+01    0.1884956E+01    0.2199115E+01    0.2513274E+01    0.2827433E+01    0.3141593E+01    0.3455752E+01    0.3769911E+01
  0.4084071E+01    0.4398230E+01    0.4712389E+01    0.5026548E+01    0.5340708E+01    0.5654867E+01    0.5969026E+01    0.6283185E+01    0.0000000E+00    0.3141593E+00
  0.6283185E+00    0.9424778E+00    0.1256637E+01    0.1570796E+01    0.1884956E+01    0.2199115E+01    0.2513274E+01    0.2827433E+01    0.3141593E+01    0.3455752E+01
  0.3769911E+01    0.4084071E+01    0.4398230E+01    0.4712389E+01    0.5026548E+01    0.5340708E+01    0.5654867E+01    0.5969026E+01    0.6283185E+01    0.0000000E+00
  0.3141593E+00    0.6283185E+00    0.9424778E+00    0.1256637E+01    0.1570796E+01    0.1884956E+01    0.2199115E+01    0.2513274E+01    0.2827433E+01    0.3141593E+01
  0.3455752E+01    0.3769911E+01    0.4084071E+01    0.4398230E+01    0.4712389E+01    0.5026548E+01    0.5340708E+01    0.5654867E+01    0.5969026E+01    0.6283185E+01
  0.0000000E+00    0.3141593E+00    0.6283185E+00    0.9424778E+00    0.1256637E+01    0.1570796E+01    0.1884956E+01    0.2199115E+01    0.2513274E+01    0.2827433E+01
  0.3141593E+01    0.3455752E+01    0.3769911E+01    0.4084071E+01    0.4398230E+01    0.4712389E+01    0.5026548E+01    0.5340708E+01    0.5654867E+01    0.5969026E+01
  0.6283185E+01    0.0000000E+00    0.0000000E+00    0.0000000E+00    0.0000000E+00    0.0000000E+00    0.0000000E+00    0.0000000E+00    0.0000000E+00    0.0000000E+00
  0.0000000E+00    0.0000000E+00    0.0000000E+00    0.0000000E+00    0.0000000E+00    0.0000000E+00    0.0000000E+00    0.0000000E+00    0.0000000E+00    0.0000000E+00
  0.0000000E+00    0.0000000E+00    0.3141593E+00    0.3141593E+00    0.3141593E+00    0.3141593E+00    0.3141593E+00    0.3141593E+00    0.3141593E+00    0.3141593E+00
  0.3141593E+00    0.3141593E+00    0.3141593E+00    0.3141593E+00    0.3141593E+00    0.3141593E+00    0.3141593E+00    0.3141593E+00    0.3141593E+00    0.3141593E+00
  0.3141593E+00    0.3141593E+00    0.3141593E+00    0.6283185E+00    0.6283185E+00    0.6283185E+00    0.6283185E+00    0.6283185E+00    0.6283185E+00    0.6283185E+00
  0.6283185E+00    0.6283185E+00    0.6283185E+00    0.6283185E+00    0.6283185E+00    0.6283185E+00    0.6283185E+00    0.6283185E+00    0.6283185E+00    0.6283185E+00
  0.6283185E+00    0.6283185E+00    0.6283185E+00    0.6283185E+00    0.9424778E+00    0.9424778E+00    0.9424778E+00    0.9424778E+00    0.9424778E+00    0.9424778E+00
  0.9424778E+00    0.9424778E+00    0.9424778E+00    0.9424778E+00    0.9424778E+00    0.9424778E+00    0.9424778E+00    0.9424778E+00    0.9424778E+00    0.9424778E+00
  0.9424778E+00    0.9424778E+00    0.9424778E+00    0.9424778E+00    0.9424778E+00    0.1256637E+01    0.1256637E+01    0.1256637E+01    0.1256637E+01    0.1256637E+01
  0.1256637E+01    0.1256637E+01    0.1256637E+01    0.1256637E+01    0.1256637E+01    0.1256637E+01    0.1256637E+01    0.1256637E+01    0.1256637E+01    0.1256637E+01
  0.1256637E+01    0.1256637E+01    0.1256637E+01    0.1256637E+01    0.1256637E+01    0.1256637E+01    0.1570796E+01    0.1570796E+01    0.1570796E+01    0.1570796E+01
  0.1570796E+01    0.1570796E+01    0.1570796E+01    0.1570796E+01    0.1570796E+01    0.1570796E+01    0.1570796E+01    0.1570796E+01    0.1570796E+01    0.1570796E+01
  0.1570796E+01    0.1570796E+01    0.1570796E+01    0.1570796E+01    0.1570796E+01    0.1570796E+01    0.1570796E+01    0.1884956E+01    0.1884956E+01    0.1884956E+01
  0.1884956E+01    0.1884956E+01    0.1884956E+01    0.1884956E+01    0.1884956E+01    0.1884956E+01    0.1884956E+01    0.1884956E+01    0.1884956E+01    0.1884956E+01
  0.1884956E+01    0.1884956E+01    0.1884956E+01    0.1884956E+01    0.1884956E+01    0.1884956E+01    0.1884956E+01    0.1884956E+01    0.2199115E+01    0.2199115E+01
  0.2199115E+01    0.2199115E+01    0.2199115E+01    0.2199115E+01    0.2199115E+01    0.2199115E+01    0.2199115E+01    0.2199115E+01    0.2199115E+01    0.2199115E+01
  0.2199115E+01    0.2199115E+01    0.2199115E+01    0.2199115E+01    0.2199115E+01    0.2199115E+01    0.2199115E+01    0.2199115E+01    0.2199115E+01    0.2513274E+01
  0.2513274E+01    0.2513274E+01    0.2513274E+01    0.2513274E+01    0.2513274E+01    0.2513274E+01    0.2513274E+01    0.2513274E+01    0.2513274E+01    0.2513274E+01
  0.2513274E+01    0.2513274E+01    0.2513274E+01    0.2513274E+01    0.2513274E+01    0.2513274E+01    0.2513274E+01    0.2513274E+01    0.2513274E+01    0.2513274E+01
  0.2827433E+01    0.2827433E+01    0.2827433E+01    0.2827433E+01    0.2827433E+01    0.2827433E+01    0.2827433E+01    0.2827433E+01    0.2827433E+01    0.2827433E+01
  0.2827433E+01    0.2827433E+01    0.2827433E+01    0.2827433E+01    0.2827433E+01    0.2827433E+01    0.2827433E+01    0.2827433E+01    0.2827433E+01    0.2827433E+01
  0.2827433E+01    0.3141593E+01    0.3141593E+01    0.3141593E+01    0.3141593E+01    0.3141593E+01    0.3141593E+01    0.3141593E+01    0.3141593E+01    0.3141593E+01
  0.3141593E+01    0.3141593E+01    0.3141593E+01    0.3141593E+01    0.3141593E+01    0.3141593E+01    0.3141593E+01    0.3141593E+01    0.3141593E+01    0.3141593E+01
  0.3141593E+01    0.3141593E+01    0.3455752E+01    0.3455752E+01    0.3455752E+01    0.3455752E+01    0.3455752E+01    0.3455752E+01    0.3455752E+01    0.3455752E+01
  0.3455752E+01    0.3455752E+01    0.3455752E+01    0.3455752E+01    0.3455752E+01    0.3455752E+01    0.3455752E+01    0.3455752E+01    0.3455752E+01    0.3455752E+01
  0.3455752E+01    0.3455752E+01    0.3455752E+01    0.3769911E+01    0.3769911E+01    0.3769911E+01    0.3769911E+01    0.3769911E+01    0.3769911E+01    0.3769911E+01
  0.3769911E+01    0.3769911E+01    0.3769911E+01    0.3769911E+01    0.3769911E+01    0.3769911E+01    0.3769911E+01    0.3769911E+01    0.3769911E+01    0.3769911E+01
  0.3769911E+01    0.3769911E+01    0.3769911E+01    0.3769911E+01    0.4084071E+01    0.4084071E+01    0.4084071E+01    0.4084071E+01    0.4084071E+01    0.4084071E+01
  0.4084071E+01    0.4084071E+01    0.4084071E+01    0.4084071E+01    0.4084071E+01    0.4084071E+01    0.4084071E+01    0.4084071E+01    0.4084071E+01    0.4084071E+01
  0.4084071E+01    0.4084071E+01    0.4084071E+01    0.4084071E+01    0.4084071E+01    0.4398230E+01    0.4398230E+01    0.4398230E+01    0.4398230E+01    0.4398230E+01
  0.4398230E+01    0.4398230E+01    0.4398230E+01    0.4398230E+01    0.4398230E+01    0.4398230E+01    0.4398230E+01    0.4398230E+01    0.4398230E+01    0.4398230E+01
  0.4398230E+01    0.4398230E+01    0.4398230E+01    0.4398230E+01    0.4398230E+01    0.4398230E+01    0.4712389E+01    0.4712389E+01    0.4712389E+01    0.4712389E+01
  0.4712389E+01    0.4712389E+01    0.4712389E+01    0.4712389E+01    0.4712389E+01    0.4712389E+01    0.4712389E+01    0.4712389E+01    0.4712389E+01    0.4712389E+01
  0.4712389E+01    0.4712389E+01    0.4712389E+01    0.4712389E+01    0.4712389E+01    0.4712389E+01    0.4712389E+01    0.5026548E+01    0.5026548E+01    0.5026548E+01
  0.5026548E+01    0.5026548E+01    0.5026548E+01    0.5026548E+01    0.5026548E+01    0.5026548E+01    0.5026548E+01    0.5026548E+01    0.5026548E+01    0.5026548E+01
  0.5026548E+01    0.5026548E+01    0.5026548E+01    0.5026548E+01    0.5026548E+01    0.5026548E+01    0.5026548E+01    0.5026548E+01    0.5340708E+01    0.5340708E+01
  0.5340708E+01    0.5340708E+01    0.5340708E+01    0.5340708E+01    0.5340708E+01    0.5340708E+01    0.5340708E+01    0.5340708E+01    0.5340708E+01    0.5340708E+01
  0.5340708E+01    0.5340708E+01    0.5340708E+01    0.5340708E+01    0.5340708E+01    0.5340708E+01    0.5340708E+01    0.5340708E+01    0.5340708E+01    0.5654867E+01
  0.5654867E+01    0.5654867E+01    0.5654867E+01    0.5654867E+01    0.5654867E+01    0.5654867E+01    0.5654867E+01    0.5654867E+01    0.5654867E+01    0.5654867E+01
  0.5654867E+01    0.5654867E+01    0.5654867E+01    0.5654867E+01    0.5654867E+01    0.5654867E+01    0.5654867E+01    0.5654867E+01    0.5654867E+01    0.5654867E+01
  0.5969026E+01    0.5969026E+01    0.5969026E+01    0.5969026E+01    0.5969026E+01    0.5969026E+01    0.5969026E+01    0.5969026E+01    0.5969026E+01    0.5969026E+01
  0.5969026E+01    0.5969026E+01    0.5969026E+01    0.5969026E+01    0.5969026E+01    0.5969026E+01    0.5969026E+01    0.5969026E+01    0.5969026E+01    0.5969026E+01
  0.5969026E+01    0.6283185E+01    0.6283185E+01    0.6283185E+01    0.6283185E+01    0.6283185E+01    0.6283185E+01    0.6283185E+01    0.6283185E+01    0.6283185E+01
  0.6283185E+01    0.6283185E+01    0.6283185E+01    0.6283185E+01    0.6283185E+01    0.6283185E+01    0.6283185E+01    0.6283185E+01    0.6283185E+01    0.6283185E+01
  0.6283185E+01    0.6283185E+01   -0.5659539E-01   -0.5105302E-01   -0.4051170E-01   -0.2600340E-01   -0.8948218E-02    0.8986016E-02    0.2604595E-01    0.4056379E-01
  0.5111591E-01    0.5660622E-01    0.5655423E-01    0.5102528E-01    0.4049810E-01    0.2599794E-01    0.8949029E-02   -0.8978060E-02   -0.2603035E-01   -0.4053512E-01
 -0.5107231E-01   -0.5661427E-01   -0.1642569E+00   -0.1481752E+00   -0.1175869E+00   -0.7548595E-01   -0.2599277E-01    0.2604925E-01    0.7554676E-01    0.1176529E+00
  0.1482362E+00    0.1642748E+00    0.1642319E+00    0.1481468E+00    0.1175675E+00    0.7547676E-01    0.2599424E-01   -0.2603613E-01   -0.7552158E-01   -0.1176160E+00
 -0.1481987E+00   -0.1642774E+00   -0.2558395E+00   -0.2307928E+00   -0.1831519E+00   -0.1175796E+00   -0.4049421E-01    0.4055933E-01    0.1176463E+00    0.1832175E+00
  0.2308464E+00    0.2558614E+00    0.2558300E+00    0.2307727E+00    0.1831343E+00    0.1175703E+00    0.4049588E-01   -0.4054539E-01   -0.1176209E+00   -0.1831850E+00
 -0.2308194E+00   -0.2558617E+00   -0.3223804E+00   -0.2908195E+00   -0.2307890E+00   -0.1481644E+00   -0.5103313E-01    0.5109693E-01    0.1482273E+00    0.2308471E+00
  0.2908643E+00    0.3224012E+00    0.3223785E+00    0.2908071E+00    0.2307757E+00    0.1481565E+00    0.5103427E-01   -0.5108556E-01   -0.1482073E+00   -0.2308235E+00
 -0.2908472E+00   -0.3224028E+00   -0.3573640E+00   -0.3223784E+00   -0.2558346E+00   -0.1642456E+00   -0.5657661E-01    0.5663284E-01    0.1642997E+00    0.2558826E+00
  0.3224143E+00    0.3573815E+00    0.3573652E+00    0.3223714E+00    0.2558254E+00    0.1642395E+00    0.5657670E-01   -0.5662549E-01   -0.1642866E+00   -0.2558679E+00
 -0.3224048E+00   -0.3573838E+00   -0.3573636E+00   -0.3223791E+00   -0.2558362E+00   -0.1642483E+00   -0.5658071E-01    0.5662694E-01    0.1642921E+00    0.2558742E+00
  0.3224074E+00    0.3573789E+00    0.3573673E+00    0.3223759E+00    0.2558303E+00    0.1642435E+00    0.5657964E-01   -0.5662348E-01   -0.1642853E+00   -0.2558672E+00
 -0.3224042E+00   -0.3573834E+00   -0.3223827E+00   -0.2908227E+00   -0.2307937E+00   -0.1481717E+00   -0.5104427E-01    0.5108071E-01    0.1482058E+00    0.2308228E+00
  0.2908441E+00    0.3223942E+00    0.3223859E+00    0.2908211E+00    0.2307898E+00    0.1481679E+00    0.5104235E-01   -0.5108024E-01   -0.1482039E+00   -0.2308215E+00
 -0.2908460E+00   -0.3224022E+00   -0.2558439E+00   -0.2307972E+00   -0.1831580E+00   -0.1175891E+00   -0.4050896E-01    0.4053715E-01    0.1176153E+00    0.1831801E+00
  0.2308132E+00    0.2558521E+00    0.2558462E+00    0.2307966E+00    0.1831556E+00    0.1175863E+00    0.4050671E-01   -0.4053855E-01   -0.1176165E+00   -0.1831822E+00
 -0.2308178E+00   -0.2558602E+00   -0.1642578E+00   -0.1481777E+00   -0.1175918E+00   -0.7549431E-01   -0.2600623E-01    0.2602797E-01    0.7551450E-01    0.1176089E+00
  0.1481906E+00    0.1642660E+00    0.1642618E+00    0.1481786E+00    0.1175908E+00    0.7549246E-01    0.2600411E-01   -0.2603019E-01   -0.7551726E-01   -0.1176130E+00
 -0.1481966E+00   -0.1642744E+00   -0.5659451E-01   -0.5105330E-01   -0.4051391E-01   -0.2600816E-01   -0.8956119E-02    0.8972978E-02    0.2602382E-01    0.4052715E-01
  0.5106333E-01    0.5660090E-01    0.5659784E-01    0.5105472E-01    0.4051397E-01    0.2600721E-01    0.8954490E-02   -0.8975307E-02   -0.2602732E-01   -0.4053225E-01
 -0.5107062E-01   -0.5661124E-01    0.5660921E-01    0.5106949E-01    0.4053086E-01    0.2602506E-01    0.8972066E-02   -0.8958935E-02   -0.2601289E-01   -0.4052046E-01
 -0.5106161E-01   -0.5660455E-01   -0.5660662E-01   -0.5106763E-01   -0.4052994E-01   -0.2602507E-01   -0.8973004E-02    0.8956830E-02    0.2600936E-01    0.4051532E-01
  0.5105465E-01    0.5659593E-01    0.1642754E+00    0.1481951E+00    0.1176094E+00    0.7551183E-01    0.2602300E-01   -0.2601293E-01   -0.7550235E-01   -0.1176010E+00
 -0.1481879E+00   -0.1642691E+00   -0.1642704E+00   -0.1481919E+00   -0.1176073E+00   -0.7551088E-01   -0.2602330E-01    0.2601123E-01    0.7549900E-01    0.1175959E+00
  0.1481813E+00    0.1642614E+00    0.2558588E+00    0.2308139E+00    0.1831758E+00    0.1176076E+00    0.4052725E-01   -0.4051997E-01   -0.1176007E+00   -0.1831697E+00
 -0.2308085E+00   -0.2558540E+00   -0.2558547E+00   -0.2308105E+00   -0.1831732E+00   -0.1176060E+00   -0.4052701E-01    0.4051854E-01    0.1175972E+00    0.1831642E+00
  0.2308009E+00    0.2558439E+00    0.3223972E+00    0.2908396E+00    0.2308124E+00    0.1481917E+00    0.5106492E-01   -0.5106036E-01   -0.1481874E+00   -0.2308085E+00
 -0.2908362E+00   -0.3223945E+00   -0.3223944E+00   -0.2908362E+00   -0.2308093E+00   -0.1481894E+00   -0.5106428E-01    0.5105885E-01    0.1481836E+00    0.2308027E+00
  0.2908288E+00    0.3223863E+00    0.3573819E+00    0.3223980E+00    0.2558564E+00    0.1642703E+00    0.5660435E-01   -0.5660249E-01   -0.1642685E+00   -0.2558546E+00
 -0.3223953E+00   -0.3573771E+00   -0.3573763E+00   -0.3223931E+00   -0.2558523E+00   -0.1642674E+00   -0.5660358E-01    0.5660068E-01    0.1642640E+00    0.2558477E+00
  0.3223873E+00    0.3573695E+00    0.3573798E+00    0.3223967E+00    0.2558556E+00    0.1642695E+00    0.5660323E-01   -0.5660387E-01   -0.1642702E+00   -0.2558563E+00
 -0.3223965E+00   -0.3573777E+00   -0.3573760E+00   -0.3223920E+00   -0.2558508E+00   -0.1642661E+00   -0.5660244E-01    0.5660138E-01    0.1642641E+00    0.2558474E+00
  0.3223858E+00    0.3573655E+00    0.3223949E+00    0.2908377E+00    0.2308105E+00    0.1481894E+00    0.5106205E-01   -0.5106411E-01   -0.1481919E+00   -0.2308131E+00
 -0.2908398E+00   -0.3223961E+00   -0.3223935E+00   -0.2908332E+00   -0.2308053E+00   -0.1481856E+00   -0.5106127E-01    0.5106072E-01    0.1481844E+00    0.2308026E+00
  0.2908280E+00    0.3223855E+00    0.2558586E+00    0.2308125E+00    0.1831738E+00    0.1176050E+00    0.4052378E-01   -0.4052471E-01   -0.1176065E+00   -0.1831756E+00
 -0.2308133E+00   -0.2558562E+00   -0.2558535E+00   -0.2308066E+00   -0.1831677E+00   -0.1176006E+00   -0.4052308E-01    0.4052095E-01    0.1175983E+00    0.1831638E+00
  0.2308006E+00    0.2558459E+00    0.1642715E+00    0.1481923E+00    0.1176072E+00    0.7550994E-01    0.2602080E-01   -0.2601592E-01   -0.7550596E-01   -0.1176044E+00
 -0.1481905E+00   -0.1642711E+00   -0.1642710E+00   -0.1481896E+00   -0.1176030E+00   -0.7550623E-01   -0.2602006E-01    0.2601299E-01    0.7549921E-01    0.1175938E+00
  0.1481773E+00    0.1642549E+00    0.5660406E-01    0.5106706E-01    0.4053012E-01    0.2602570E-01    0.8973924E-02   -0.8956110E-02   -0.2600804E-01   -0.4051239E-01
 -0.5105202E-01   -0.5660467E-01   -0.5661562E-01   -0.5107398E-01   -0.4053194E-01   -0.2602455E-01   -0.8973151E-02    0.8956489E-02    0.2600885E-01    0.4051240E-01
  0.5105107E-01    0.5659304E-01    0.5661407E-01    0.1642803E+00    0.2558678E+00    0.3224095E+00    0.3573915E+00    0.3573885E+00    0.3223929E+00    0.2558202E+00
  0.1641646E+00    0.5633557E-01   -0.5672040E-01   -0.1643159E+00   -0.2558694E+00   -0.3223942E+00   -0.3573642E+00   -0.3573619E+00   -0.3223804E+00   -0.2558351E+00
 -0.1642532E+00   -0.5659375E-01    0.5107176E-01    0.1481984E+00    0.2308201E+00    0.2908479E+00    0.3224047E+00    0.3223990E+00    0.2908249E+00    0.2307642E+00
  0.1480853E+00    0.5088586E-01   -0.5117587E-01   -0.1482462E+00   -0.2308326E+00   -0.2908403E+00   -0.3223865E+00   -0.3223821E+00   -0.2908226E+00   -0.2307934E+00
 -0.1481749E+00   -0.5105166E-01    0.4053114E-01    0.1176106E+00    0.1831788E+00    0.2308161E+00    0.2558580E+00    0.2558503E+00    0.2307892E+00    0.1831225E+00
  0.1175149E+00    0.4040264E-01   -0.4061838E-01   -0.1176612E+00   -0.1831998E+00   -0.2308184E+00   -0.2558513E+00   -0.2558456E+00   -0.2307983E+00   -0.1831591E+00
 -0.1175919E+00   -0.4051387E-01    0.2602342E-01    0.7551080E-01    0.1176072E+00    0.1481909E+00    0.1642665E+00    0.1642582E+00    0.1481639E+00    0.1175568E+00
  0.7543469E-01    0.2593096E-01   -0.2609273E-01   -0.7555797E-01   -0.1176331E+00   -0.1482020E+00   -0.1642709E+00   -0.1642648E+00   -0.1481820E+00   -0.1175950E+00
 -0.7549775E-01   -0.2601037E-01    0.8968042E-02    0.2601964E-01    0.4052400E-01    0.5106047E-01    0.5659653E-01    0.5658870E-01    0.5103613E-01    0.4048181E-01
  0.2596094E-01    0.8900588E-02   -0.9023555E-02   -0.2606179E-01   -0.4055198E-01   -0.5107810E-01   -0.5660968E-01   -0.5660403E-01   -0.5106004E-01   -0.4051927E-01
 -0.2601297E-01   -0.8960613E-02   -0.8964479E-02   -0.2601781E-01   -0.4052520E-01   -0.5106711E-01   -0.5661246E-01   -0.5661935E-01   -0.5108781E-01   -0.4055926E-01
 -0.2606275E-01   -0.9014346E-02    0.8919257E-02    0.2598072E-01    0.4049707E-01    0.5104557E-01    0.5659341E-01    0.5659825E-01    0.5106060E-01    0.4052332E-01
  0.2601848E-01    0.8966085E-02   -0.2601881E-01   -0.7550794E-01   -0.1176069E+00   -0.1481953E+00   -0.1642793E+00   -0.1642851E+00   -0.1482123E+00   -0.1176340E+00
 -0.7554239E-01   -0.2605629E-01    0.2598108E-01    0.7547517E-01    0.1175796E+00    0.1481717E+00    0.1642568E+00    0.1642607E+00    0.1481835E+00    0.1175999E+00
  0.7550373E-01    0.2601599E-01   -0.4052668E-01   -0.1176068E+00   -0.1831763E+00   -0.2308169E+00   -0.2558654E+00   -0.2558701E+00   -0.2308306E+00   -0.1831976E+00
 -0.1176332E+00   -0.4055459E-01    0.4049353E-01    0.1175771E+00    0.1831499E+00    0.2307925E+00    0.2558412E+00    0.2558441E+00    0.2308016E+00    0.1831653E+00
  0.1175985E+00    0.4051973E-01   -0.5106700E-01   -0.1481932E+00   -0.2308149E+00   -0.2908445E+00   -0.3224059E+00   -0.3224098E+00   -0.2908555E+00   -0.2308318E+00
 -0.1482137E+00   -0.5108824E-01    0.5103738E-01    0.1481661E+00    0.2307898E+00    0.2908203E+00    0.3223813E+00    0.3223836E+00    0.2908271E+00    0.2308011E+00
  0.1481818E+00    0.5105662E-01   -0.5660815E-01   -0.1642734E+00   -0.2558599E+00   -0.3224027E+00   -0.3573879E+00   -0.3573910E+00   -0.3224116E+00   -0.2558735E+00
 -0.1642898E+00   -0.5662511E-01    0.5658146E-01    0.1642484E+00    0.2558361E+00    0.3223791E+00    0.3573637E+00    0.3573654E+00    0.3223842E+00    0.2558447E+00
  0.1642604E+00    0.5659632E-01   -0.5660914E-01   -0.1642740E+00   -0.2558602E+00   -0.3224025E+00   -0.3573872E+00   -0.3573898E+00   -0.3224098E+00   -0.2558711E+00
 -0.1642871E+00   -0.5662246E-01    0.5658385E-01    0.1642502E+00    0.2558372E+00    0.3223797E+00    0.3573639E+00    0.3573652E+00    0.3223839E+00    0.2558442E+00
  0.1642599E+00    0.5659607E-01   -0.5106862E-01   -0.1481944E+00   -0.2308153E+00   -0.2908439E+00   -0.3224039E+00   -0.3224061E+00   -0.2908500E+00   -0.2308246E+00
 -0.1482055E+00   -0.5107990E-01    0.5104479E-01    0.1481718E+00    0.2307935E+00    0.2908222E+00    0.3223817E+00    0.3223830E+00    0.2908258E+00    0.2307994E+00
  0.1481799E+00    0.5105468E-01   -0.4052896E-01   -0.1176087E+00   -0.1831772E+00   -0.2308162E+00   -0.2558625E+00   -0.2558643E+00   -0.2308215E+00   -0.1831854E+00
 -0.1176188E+00   -0.4053981E-01    0.4050665E-01    0.1175872E+00    0.1831564E+00    0.2307956E+00    0.2558418E+00    0.2558430E+00    0.2307992E+00    0.1831622E+00
  0.1175951E+00    0.4051616E-01   -0.2602357E-01   -0.7551163E-01   -0.1176091E+00   -0.1481954E+00   -0.1642763E+00   -0.1642780E+00   -0.1482002E+00   -0.1176167E+00
 -0.7552110E-01   -0.2603385E-01    0.2600117E-01    0.7549028E-01    0.1175889E+00    0.1481760E+00    0.1642574E+00    0.1642587E+00    0.1481801E+00    0.1175955E+00
  0.7549899E-01    0.2601164E-01   -0.8970547E-02   -0.2602297E-01   -0.4052896E-01   -0.5106856E-01   -0.5661026E-01   -0.5661181E-01   -0.5107314E-01   -0.4053645E-01
 -0.2603293E-01   -0.8981751E-02    0.8948237E-02    0.2600184E-01    0.4050959E-01    0.5105086E-01    0.5659352E-01    0.5659517E-01    0.5105560E-01    0.4051715E-01
  0.2601176E-01    0.8959262E-02    0.8960797E-02    0.2601271E-01    0.4051808E-01    0.5105672E-01    0.5659666E-01    0.5659527E-01    0.5105227E-01    0.4051019E-01
  0.2600147E-01    0.8947002E-02   -0.8983182E-02   -0.2603383E-01   -0.4053663E-01   -0.5107259E-01   -0.5661054E-01   -0.5660864E-01   -0.5106687E-01   -0.4052726E-01
 -0.2602157E-01   -0.8969495E-02    0.2601283E-01    0.7550079E-01    0.1175981E+00    0.1481837E+00    0.1642632E+00    0.1642620E+00    0.1481795E+00    0.1175901E+00
  0.7548851E-01    0.2599723E-01   -0.2603783E-01   -0.7552330E-01   -0.1176164E+00   -0.1481974E+00   -0.1642736E+00   -0.1642716E+00   -0.1481905E+00   -0.1176047E+00
 -0.7550813E-01   -0.2602025E-01    0.4051886E-01    0.1175983E+00    0.1831666E+00    0.2308052E+00    0.2558504E+00    0.2558495E+00    0.2308017E+00    0.1831586E+00
  0.1175845E+00    0.4050053E-01   -0.4054622E-01   -0.1176221E+00   -0.1831843E+00   -0.2308162E+00   -0.2558566E+00   -0.2558545E+00   -0.2308084E+00   -0.1831706E+00
 -0.1176045E+00   -0.4052638E-01    0.5105866E-01    0.1481839E+00    0.2308049E+00    0.2908332E+00    0.3223927E+00    0.3223924E+00    0.2908306E+00    0.2307972E+00
  0.1481696E+00    0.5103908E-01   -0.5108764E-01   -0.1482090E+00   -0.2308227E+00   -0.2908419E+00   -0.3223946E+00   -0.3223934E+00   -0.2908332E+00   -0.2308059E+00
 -0.1481893E+00   -0.5106470E-01    0.5659673E-01    0.1642618E+00    0.2558487E+00    0.3223908E+00    0.3573758E+00    0.3573760E+00    0.3223889E+00    0.2558416E+00
  0.1642508E+00    0.5659100E-01   -0.5662879E-01   -0.1642908E+00   -0.2558698E+00   -0.3223990E+00   -0.3573748E+00   -0.3573761E+00   -0.3223892E+00   -0.2558478E+00
 -0.1642698E+00   -0.5660384E-01   -0.1113106E-01   -0.5409259E-02    0.3862614E-02    0.1312221E-01    0.1882334E-01    0.1883574E-01    0.1311935E-01    0.3831887E-02
 -0.5464142E-02   -0.1148901E-01   -0.1122106E-01   -0.5385506E-02    0.3897331E-02    0.1308180E-01    0.1886832E-01    0.1889432E-01    0.1308683E-01    0.3925283E-02
 -0.5289375E-02   -0.1112702E-01   -0.5417036E-02    0.2953518E-03    0.9553518E-02    0.1880761E-01    0.2451507E-01    0.2451548E-01    0.1878862E-01    0.9501719E-02
  0.2165845E-03   -0.5566513E-02   -0.5528559E-02    0.2673180E-03    0.9571147E-02    0.1878151E-01    0.2454245E-01    0.2458595E-01    0.1880654E-01    0.9605648E-02
  0.4096713E-03   -0.5384906E-02    0.3859148E-02    0.9555021E-02    0.1879615E-01    0.2805090E-01    0.3375746E-01    0.3374471E-01    0.2802382E-01    0.1874094E-01
  0.9467110E-02    0.3750091E-02    0.3738782E-02    0.9490949E-02    0.1880210E-01    0.2802538E-01    0.3376206E-01    0.3382373E-01    0.2806197E-01    0.1882833E-01
  0.9660070E-02    0.3898797E-02    0.1311336E-01    0.1880963E-01    0.2805397E-01    0.3730620E-01    0.4300172E-01    0.4299474E-01    0.3727617E-01    0.2798456E-01
  0.1873258E-01    0.1303359E-01    0.1299573E-01    0.1874230E-01    0.2805043E-01    0.3726002E-01    0.4300732E-01    0.4307283E-01    0.3729639E-01    0.2807913E-01